
                                 *****************
                                 * O   R   C   A *
                                 *****************

                                            #,                                       
                                            ###                                      
                                            ####                                     
                                            #####                                    
                                            ######                                   
                                           ########,                                 
                                     ,,################,,,,,                         
                               ,,#################################,,                 
                          ,,##########################################,,             
                       ,#########################################, ''#####,          
                    ,#############################################,,   '####,        
                  ,##################################################,,,,####,       
                ,###########''''           ''''###############################       
              ,#####''   ,,,,##########,,,,          '''####'''          '####       
            ,##' ,,,,###########################,,,                        '##       
           ' ,,###''''                  '''############,,,                           
         ,,##''                                '''############,,,,        ,,,,,,###''
      ,#''                                            '''#######################'''  
     '                                                          ''''####''''         
             ,#######,   #######,   ,#######,      ##                                
            ,#'     '#,  ##    ##  ,#'     '#,    #''#        ######   ,####,        
            ##       ##  ##   ,#'  ##            #'  '#       #        #'  '#        
            ##       ##  #######   ##           ,######,      #####,   #    #        
            '#,     ,#'  ##    ##  '#,     ,#' ,#      #,         ##   #,  ,#        
             '#######'   ##     ##  '#######'  #'      '#     #####' # '####'        



                  #######################################################
                  #                        -***-                        #
                  #          Department of theory and spectroscopy      #
                  #    Directorship and core code : Frank Neese         #
                  #        Max Planck Institute fuer Kohlenforschung    #
                  #                Kaiser Wilhelm Platz 1               #
                  #                 D-45470 Muelheim/Ruhr               #
                  #                      Germany                        #
                  #                                                     #
                  #                  All rights reserved                #
                  #                        -***-                        #
                  #######################################################


                         Program Version 5.0.4 -  RELEASE  -


 With contributions from (in alphabetic order):
   Daniel Aravena         : Magnetic Suceptibility
   Michael Atanasov       : Ab Initio Ligand Field Theory (pilot matlab implementation)
   Alexander A. Auer      : GIAO ZORA, VPT2 properties, NMR spectrum
   Ute Becker             : Parallelization
   Giovanni Bistoni       : ED, misc. LED, open-shell LED, HFLD
   Martin Brehm           : Molecular dynamics
   Dmytro Bykov           : SCF Hessian
   Vijay G. Chilkuri      : MRCI spin determinant printing, contributions to CSF-ICE
   Dipayan Datta          : RHF DLPNO-CCSD density
   Achintya Kumar Dutta   : EOM-CC, STEOM-CC
   Dmitry Ganyushin       : Spin-Orbit,Spin-Spin,Magnetic field MRCI
   Miquel Garcia          : C-PCM and meta-GGA Hessian, CC/C-PCM, Gaussian charge scheme
   Yang Guo               : DLPNO-NEVPT2, F12-NEVPT2, CIM, IAO-localization
   Andreas Hansen         : Spin unrestricted coupled pair/coupled cluster methods
   Benjamin Helmich-Paris : MC-RPA, TRAH-SCF, COSX integrals
   Lee Huntington         : MR-EOM, pCC
   Robert Izsak           : Overlap fitted RIJCOSX, COSX-SCS-MP3, EOM
   Marcus Kettner         : VPT2
   Christian Kollmar      : KDIIS, OOCD, Brueckner-CCSD(T), CCSD density, CASPT2, CASPT2-K
   Simone Kossmann        : Meta GGA functionals, TD-DFT gradient, OOMP2, MP2 Hessian
   Martin Krupicka        : Initial AUTO-CI
   Lucas Lang             : DCDCAS
   Marvin Lechner         : AUTO-CI (C++ implementation), FIC-MRCC
   Dagmar Lenk            : GEPOL surface, SMD
   Dimitrios Liakos       : Extrapolation schemes; Compound Job, initial MDCI parallelization
   Dimitrios Manganas     : Further ROCIS development; embedding schemes
   Dimitrios Pantazis     : SARC Basis sets
   Anastasios Papadopoulos: AUTO-CI, single reference methods and gradients
   Taras Petrenko         : DFT Hessian,TD-DFT gradient, ASA, ECA, R-Raman, ABS, FL, XAS/XES, NRVS
   Peter Pinski           : DLPNO-MP2, DLPNO-MP2 Gradient
   Christoph Reimann      : Effective Core Potentials
   Marius Retegan         : Local ZFS, SOC
   Christoph Riplinger    : Optimizer, TS searches, QM/MM, DLPNO-CCSD(T), (RO)-DLPNO pert. Triples
   Tobias Risthaus        : Range-separated hybrids, TD-DFT gradient, RPA, STAB
   Michael Roemelt        : Original ROCIS implementation
   Masaaki Saitow         : Open-shell DLPNO-CCSD energy and density
   Barbara Sandhoefer     : DKH picture change effects
   Avijit Sen             : IP-ROCIS
   Kantharuban Sivalingam : CASSCF convergence, NEVPT2, FIC-MRCI
   Bernardo de Souza      : ESD, SOC TD-DFT
   Georgi Stoychev        : AutoAux, RI-MP2 NMR, DLPNO-MP2 response
   Willem Van den Heuvel  : Paramagnetic NMR
   Boris Wezisla          : Elementary symmetry handling
   Frank Wennmohs         : Technical directorship


 We gratefully acknowledge several colleagues who have allowed us to
 interface, adapt or use parts of their codes:
   Stefan Grimme, W. Hujo, H. Kruse, P. Pracht,  : VdW corrections, initial TS optimization,
                  C. Bannwarth, S. Ehlert          DFT functionals, gCP, sTDA/sTD-DF
   Ed Valeev, F. Pavosevic, A. Kumar             : LibInt (2-el integral package), F12 methods
   Garnet Chan, S. Sharma, J. Yang, R. Olivares  : DMRG
   Ulf Ekstrom                                   : XCFun DFT Library
   Mihaly Kallay                                 : mrcc  (arbitrary order and MRCC methods)
   Jiri Pittner, Ondrej Demel                    : Mk-CCSD
   Frank Weinhold                                : gennbo (NPA and NBO analysis)
   Christopher J. Cramer and Donald G. Truhlar   : smd solvation model
   Lars Goerigk                                  : TD-DFT with DH, B97 family of functionals
   V. Asgeirsson, H. Jonsson                     : NEB implementation
   FAccTs GmbH                                   : IRC, NEB, NEB-TS, DLPNO-Multilevel, CI-OPT
                                                   MM, QMMM, 2- and 3-layer-ONIOM, Crystal-QMMM,
                                                   LR-CPCM, SF, NACMEs, symmetry and pop. for TD-DFT,
                                                   nearIR, NL-DFT gradient (VV10), updates on ESD,
                                                   ML-optimized integration grids
   S Lehtola, MJT Oliveira, MAL Marques          : LibXC Library
   Liviu Ungur et al                             : ANISO software


 Your calculation uses the libint2 library for the computation of 2-el integrals
 For citations please refer to: http://libint.valeyev.net

 Your ORCA version has been built with support for libXC version: 5.1.0
 For citations please refer to: https://tddft.org/programs/libxc/

 This ORCA versions uses:
   CBLAS   interface :  Fast vector & matrix operations
   LAPACKE interface :  Fast linear algebra routines
   SCALAPACK package :  Parallel linear algebra routines
   Shared memory     :  Shared parallel matrices
   BLAS/LAPACK       :  OpenBLAS 0.3.15  USE64BITINT DYNAMIC_ARCH NO_AFFINITY Sandybridge SINGLE_THREADED
        Core in use  :  Sandybridge
   Copyright (c) 2011-2014, The OpenBLAS Project


================================================================================

----- Orbital basis set information -----
Your calculation utilizes the basis: def2-SVP
   F. Weigend and R. Ahlrichs, Phys. Chem. Chem. Phys. 7, 3297 (2005).

================================================================================
                                        WARNINGS
                       Please study these warnings very carefully!
================================================================================


WARNING: Geometry Optimization
  ===> : Switching off AutoStart
         For restart on a previous wavefunction, please use MOREAD

INFO   : the flag for use of the SHARK integral package has been found!

================================================================================
                                       INPUT FILE
================================================================================
NAME = test.inp
|  1> !uhf Opt def2-svp tightscf
|  2> !ALLPOP
|  3> !LARGEPRINT
|  4> !PAL4
|  5> 
|  6> *xyz -9 6 
|  7>                 Cr        0.00000        0.00000        0.00000
|  8>                 O        1.53192        1.18654        0.95167
|  9>                 O       -1.53192       -1.18654       -0.95167
| 10>                 O        1.33207       -0.39454       -1.65235
| 11>                 O       -1.33207        0.39454        1.65235
| 12>                 O       -0.73426        1.75977       -1.01213
| 13>                 O        0.73426       -1.75977        1.01213
| 14> *
| 15> 
| 16>                          ****END OF INPUT****
================================================================================

                       *****************************
                       * Geometry Optimization Run *
                       *****************************

Geometry optimization settings:
Update method            Update   .... BFGS
Choice of coordinates    CoordSys .... Z-matrix Internals
Initial Hessian          InHess   .... Almoef's Model

Convergence Tolerances:
Energy Change            TolE     ....  5.0000e-06 Eh
Max. Gradient            TolMAXG  ....  3.0000e-04 Eh/bohr
RMS Gradient             TolRMSG  ....  1.0000e-04 Eh/bohr
Max. Displacement        TolMAXD  ....  4.0000e-03 bohr
RMS Displacement         TolRMSD  ....  2.0000e-03 bohr
Strict Convergence                ....  False
------------------------------------------------------------------------------
                        ORCA OPTIMIZATION COORDINATE SETUP
------------------------------------------------------------------------------

The optimization will be done in new redundant internal coordinates
Making redundant internal coordinates   ...  (new redundants) done
Evaluating the initial hessian          ...  (Almloef) done
Evaluating the coordinates              ...  done
Calculating the B-matrix                .... done
Calculating the G-matrix                .... done
Diagonalizing the G-matrix              .... done
The first mode is                       ....    3
The number of degrees of freedom        ....   15

    -----------------------------------------------------------------
                    Redundant Internal Coordinates


    -----------------------------------------------------------------
         Definition                    Initial Value    Approx d2E/dq
    -----------------------------------------------------------------
      1. B(O   1,Cr  0)                  2.1588         0.336094   
      2. B(O   2,Cr  0)                  2.1588         0.336094   
      3. B(O   3,Cr  0)                  2.1588         0.336094   
      4. B(O   4,Cr  0)                  2.1588         0.336094   
      5. B(O   5,Cr  0)                  2.1588         0.336093   
      6. B(O   6,Cr  0)                  2.1588         0.336093   
      7. A(O   2,Cr  0,O   3)           89.9999         0.433788   
      8. A(O   1,Cr  0,O   4)           89.9999         0.433788   
      9. A(O   2,Cr  0,O   4)           90.0001         0.433788   
     10. A(O   1,Cr  0,O   5)           90.0000         0.433788   
     11. A(O   2,Cr  0,O   5)           90.0000         0.433788   
     12. A(O   3,Cr  0,O   5)           89.9999         0.433788   
     13. A(O   4,Cr  0,O   5)           90.0001         0.433788   
     14. A(O   1,Cr  0,O   6)           90.0000         0.433788   
     15. A(O   2,Cr  0,O   6)           90.0000         0.433788   
     16. A(O   3,Cr  0,O   6)           90.0001         0.433788   
     17. A(O   4,Cr  0,O   6)           89.9999         0.433788   
     18. A(O   1,Cr  0,O   3)           90.0001         0.433788   
    -----------------------------------------------------------------

Number of atoms                         .... 7
Number of degrees of freedom            .... 18

         *************************************************************
         *                GEOMETRY OPTIMIZATION CYCLE   1            *
         *************************************************************
---------------------------------
CARTESIAN COORDINATES (ANGSTROEM)
---------------------------------
  Cr     0.000000    0.000000    0.000000
  O      1.531920    1.186540    0.951670
  O     -1.531920   -1.186540   -0.951670
  O      1.332070   -0.394540   -1.652350
  O     -1.332070    0.394540    1.652350
  O     -0.734260    1.759770   -1.012130
  O      0.734260   -1.759770    1.012130

----------------------------
CARTESIAN COORDINATES (A.U.)
----------------------------
  NO LB      ZA    FRAG     MASS         X           Y           Z
   0 Cr   24.0000    0    52.000    0.000000    0.000000    0.000000
   1 O     8.0000    0    15.999    2.894909    2.242236    1.798396
   2 O     8.0000    0    15.999   -2.894909   -2.242236   -1.798396
   3 O     8.0000    0    15.999    2.517247   -0.745573   -3.122489
   4 O     8.0000    0    15.999   -2.517247    0.745573    3.122489
   5 O     8.0000    0    15.999   -1.387550    3.325483   -1.912649
   6 O     8.0000    0    15.999    1.387550   -3.325483    1.912649

--------------------------------
INTERNAL COORDINATES (ANGSTROEM)
--------------------------------
 Cr     0   0   0     0.000000000000     0.00000000     0.00000000
 O      1   0   0     2.158780175678     0.00000000     0.00000000
 O      1   2   0     2.158780175678   180.00000000     0.00000000
 O      1   2   3     2.158780400828    90.00005830     0.00000000
 O      1   2   4     2.158780400828    89.99994170   180.00000000
 O      1   2   5     2.158780984120    90.00004722    90.00009382
 O      1   2   5     2.158780984120    89.99995278   270.00009382

---------------------------
INTERNAL COORDINATES (A.U.)
---------------------------
 Cr     0   0   0     0.000000000000     0.00000000     0.00000000
 O      1   0   0     4.079503315370     0.00000000     0.00000000
 O      1   2   0     4.079503315370   180.00000000     0.00000000
 O      1   2   3     4.079503740842    90.00005830     0.00000000
 O      1   2   4     4.079503740842    89.99994170   180.00000000
 O      1   2   5     4.079504843105    90.00004722    90.00009382
 O      1   2   5     4.079504843105    89.99995278   270.00009382

---------------------
BASIS SET INFORMATION
---------------------
There are 2 groups of distinct atoms

 Group   1 Type Cr  : 14s9p5d1f contracted to 5s3p2d1f pattern {63311/531/41/1}
 Group   2 Type O   : 7s4p1d contracted to 3s2p1d pattern {511/31/1}

Atom   0Cr   basis set group =>   1
Atom   1O    basis set group =>   2
Atom   2O    basis set group =>   2
Atom   3O    basis set group =>   2
Atom   4O    basis set group =>   2
Atom   5O    basis set group =>   2
Atom   6O    basis set group =>   2

-------------------------
BASIS SET IN INPUT FORMAT
-------------------------

 # Basis set for element : O 
 NewGTO O 
 S 5 
   1    2266.1767785000     -0.0053893504
   2     340.8701019100     -0.0402347214
   3      77.3631351670     -0.1800818421
   4      21.4796449400     -0.4682885766
   5       6.6589433124     -0.4469261716
 S 1 
   1       0.8097597567      1.0000000000
 S 1 
   1       0.2553077223      1.0000000000
 P 3 
   1      17.7215043170      0.0626302488
   2       3.8635505440      0.3333113849
   3       1.0480920883      0.7414863830
 P 1 
   1       0.2764154441      1.0000000000
 D 1 
   1       1.2000000000      1.0000000000
  end;

 # Basis set for element : Cr
 NewGTO Cr
 S 6 
   1   51528.0863490000      0.0017695546
   2    7737.2103487000      0.0135564363
   3    1760.3748470000      0.0671626458
   4     496.8770654400      0.2329590592
   5     161.4652059800      0.4704057698
   6      55.4663522680      0.3573307261
 S 3 
   1     107.5473299900     -0.1060525545
   2      12.4086718970      0.6254398148
   3       5.0423628826      0.4487882079
 S 3 
   1       8.5461640165     -0.2181901209
   2       1.3900441221      0.7042252567
   3       0.5606660288      0.4248855541
 S 1 
   1       0.0714837060      1.0000000000
 S 1 
   1       0.0282506876      1.0000000000
 P 5 
   1     640.4853609600      0.0093555064
   2     150.6971119400      0.0689933385
   3      47.5037552960      0.2634118959
   4      16.9341201650      0.5103450165
   5       6.2409680590      0.3319551295
 P 3 
   1       3.0885463206      0.3291768267
   2       1.1791047769      0.5549138519
   3       0.4336977443      0.2381841286
 D 4 
   1      27.5594794260      0.0369501403
   2       7.4687020327      0.1882151978
   3       2.4345903574      0.4464124424
   4       0.7824475481      0.5681617303
 D 1 
   1       0.2199577431      1.0000000000
 P 1 
   1       0.1206750000      1.0000000000
 F 1 
   1       1.1470000000      1.0000000000
  end;



           ************************************************************
           *        Program running with 4 parallel MPI-processes     *
           *              working on a common directory               *
           ************************************************************
------------------------------------------------------------------------------
                           ORCA GTO INTEGRAL CALCULATION
------------------------------------------------------------------------------
------------------------------------------------------------------------------
                   ___                                                        
                  /   \      - P O W E R E D   B Y -                         
                 /     \                                                     
                 |  |  |   _    _      __       _____    __    __             
                 |  |  |  | |  | |    /  \     |  _  \  |  |  /  |          
                  \  \/   | |  | |   /    \    | | | |  |  | /  /          
                 / \  \   | |__| |  /  /\  \   | |_| |  |  |/  /          
                |  |  |   |  __  | /  /__\  \  |    /   |      \           
                |  |  |   | |  | | |   __   |  |    \   |  |\   \          
                \     /   | |  | | |  |  |  |  | |\  \  |  | \   \       
                 \___/    |_|  |_| |__|  |__|  |_| \__\ |__|  \__/        
                                                                              
                      - O R C A' S   B I G   F R I E N D -                    
                                      &                                       
                       - I N T E G R A L  F E E D E R -                       
                                                                              
 v1 FN, 2020, v2 2021                                                         
------------------------------------------------------------------------------


Reading SHARK input file test.SHARKINP.tmp ... SHARK General Contraction Test:  Segmented basis detected
   -> Pre-screening matrix found on disk - Trying to read with NShells=47
   -> Passing Pre-screening matrix on to SHARK ...ok
   -> Leaving CheckPreScreeningMatrix
ok
----------------------
SHARK INTEGRAL PACKAGE
----------------------

Number of atoms                             ...      7
Number of basis functions                   ...    115
Number of shells                            ...     47
Maximum angular momentum                    ...      3
Integral batch strategy                     ... SHARK/LIBINT Hybrid
RI-J (if used) integral strategy            ... SPLIT-RIJ (Revised 2003 algorithm where possible)
Printlevel                                  ...      2
Contraction scheme used                     ... SEGMENTED contraction
Coulomb Range Separation                    ... NOT USED
Exchange Range Separation                   ... NOT USED
Finite Nucleus Model                        ... NOT USED
Auxiliary Coulomb fitting basis             ... NOT available
Auxiliary J/K fitting basis                 ... NOT available
Auxiliary Correlation fitting basis         ... NOT available
Auxiliary 'external' fitting basis          ... NOT available
Integral threshold                          ...     2.500000e-11
Primitive cut-off                           ...     2.500000e-12
Primitive pair pre-selection threshold      ...     2.500000e-12

Calculating pre-screening integrals         ... done (  0.0 sec) Dimension = 47
Organizing shell pair data                  ... done (  0.0 sec)
Shell pair information
Total number of shell pairs                 ...      1128
Shell pairs after pre-screening             ...      1002
Total number of primitive shell pairs       ...      5269
Primitive shell pairs kept                  ...      3313
          la=0 lb=0:    240 shell pairs
          la=1 lb=0:    303 shell pairs
          la=1 lb=1:    117 shell pairs
          la=2 lb=0:    148 shell pairs
          la=2 lb=1:    114 shell pairs
          la=2 lb=2:     33 shell pairs
          la=3 lb=0:     23 shell pairs
          la=3 lb=1:     15 shell pairs
          la=3 lb=2:      8 shell pairs
          la=3 lb=3:      1 shell pairs

Calculating one electron integrals          ... done (  0.0 sec)
Calculating Nuclear repulsion               ... done (  0.0 sec) ENN=    439.038182751199 Eh

SHARK setup successfully completed in   0.1 seconds

Maximum memory used throughout the entire GTOINT-calculation: 13.5 MB


           ************************************************************
           *        Program running with 4 parallel MPI-processes     *
           *              working on a common directory               *
           ************************************************************
-------------------------------------------------------------------------------
                                 ORCA SCF
-------------------------------------------------------------------------------

------------
SCF SETTINGS
------------
Hamiltonian:
 Ab initio Hamiltonian  Method          .... Hartree-Fock(GTOs)


General Settings:
 Integral files         IntName         .... test
 Hartree-Fock type      HFTyp           .... UHF
 Total Charge           Charge          ....   -9
 Multiplicity           Mult            ....    6
 Number of Electrons    NEL             ....   81
 Basis Dimension        Dim             ....  115
 Nuclear Repulsion      ENuc            ....    439.0381827512 Eh

Convergence Acceleration:
 DIIS                   CNVDIIS         .... on
   Start iteration      DIISMaxIt       ....    12
   Startup error        DIISStart       ....  0.200000
   # of expansion vecs  DIISMaxEq       ....     5
   Bias factor          DIISBfac        ....   1.050
   Max. coefficient     DIISMaxC        ....  10.000
 Trust-Rad. Augm. Hess. CNVTRAH         .... auto
   Auto Start mean grad. ratio tolernc. ....  1.125000
   Auto Start start iteration           ....    20
   Auto Start num. interpolation iter.  ....    10
   Max. Number of Micro iterations      ....    16
   Max. Number of Macro iterations      .... Maxiter - #DIIS iter
   Number of Davidson start vectors     ....     2
   Converg. threshold I  (grad. norm)   ....   1.000e-05
   Converg. threshold II (energy diff.) ....   1.000e-08
   Grad. Scal. Fac. for Micro threshold ....   0.100
   Minimum threshold for Micro iter.    ....   0.010
   NR start threshold (gradient norm)   ....   0.001
   Initial trust radius                 ....   0.400
   Minimum AH scaling param. (alpha)    ....   1.000
   Maximum AH scaling param. (alpha)    .... 1000.000
   Orbital update algorithm             .... Taylor
   White noise on init. David. guess    .... on
   Maximum white noise                  ....   0.010
   Quad. conv. algorithm                .... NR
 SOSCF                  CNVSOSCF        .... off
 Level Shifting         CNVShift        .... on
   Level shift para.    LevelShift      ....    0.2500
   Turn off err/grad.   ShiftErr        ....    0.0010
 Zerner damping         CNVZerner       .... off
 Static damping         CNVDamp         .... on
   Fraction old density DampFac         ....    0.7000
   Max. Damping (<1)    DampMax         ....    0.9800
   Min. Damping (>=0)   DampMin         ....    0.0000
   Turn off err/grad.   DampErr         ....    0.1000
 Fernandez-Rico         CNVRico         .... off

SCF Procedure:
 Maximum # iterations   MaxIter         ....   125
 SCF integral mode      SCFMode         .... Direct
   Integral package                     .... SHARK and LIBINT hybrid scheme
 Reset frequency        DirectResetFreq ....    20
 Integral Threshold     Thresh          ....  2.500e-11 Eh
 Primitive CutOff       TCut            ....  2.500e-12 Eh

Convergence Tolerance:
 Convergence Check Mode ConvCheckMode   .... Total+1el-Energy
 Convergence forced     ConvForced      .... 0
 Energy Change          TolE            ....  1.000e-08 Eh
 1-El. energy change                    ....  1.000e-05 Eh
 DIIS Error             TolErr          ....  5.000e-07


Diagonalization of the overlap matrix:
Smallest eigenvalue                        ... 2.778e-02
Time for diagonalization                   ...    0.002 sec
Threshold for overlap eigenvalues          ... 1.000e-08
Number of eigenvalues below threshold      ... 0
Time for construction of square roots      ...    0.001 sec
Total time needed                          ...    0.003 sec

SHARK General Contraction Test:  Segmented basis detected
   -> Pre-screening matrix found on disk - Trying to read with NShells=47
   -> Passing Pre-screening matrix on to SHARK ...ok
   -> Leaving CheckPreScreeningMatrix
----------------------
SHARK INTEGRAL PACKAGE
----------------------

Number of atoms                             ...      7
Number of basis functions                   ...    115
Number of shells                            ...     47
Maximum angular momentum                    ...      3
Integral batch strategy                     ... SHARK/LIBINT Hybrid
RI-J (if used) integral strategy            ... SPLIT-RIJ (Revised 2003 algorithm where possible)
Printlevel                                  ...      2
Contraction scheme used                     ... SEGMENTED contraction
Coulomb Range Separation                    ... NOT USED
Exchange Range Separation                   ... NOT USED
Finite Nucleus Model                        ... NOT USED
Auxiliary Coulomb fitting basis             ... NOT available
Auxiliary J/K fitting basis                 ... NOT available
Auxiliary Correlation fitting basis         ... NOT available
Auxiliary 'external' fitting basis          ... NOT available
Integral threshold                          ...     2.500000e-11
Primitive cut-off                           ...     2.500000e-12
Primitive pair pre-selection threshold      ...     2.500000e-12

Time for model grid setup =    0.057 sec

------------------------------
INITIAL GUESS: MODEL POTENTIAL
------------------------------
Loading Hartree-Fock densities                     ... done
Calculating cut-offs                               ... done
Initializing the effective Hamiltonian             ... done
Setting up the integral package (SHARK)            ... done
Starting the Coulomb interaction                   ...     -> Generating integrals - 
    -> L=0 0 :     0.002 sec done=     20502 skipped=       936 prim-skipped=         0
    -> L=1 0 :     0.003 sec done=     27935 skipped=       166 prim-skipped=         0
    -> L=1 1 :     0.002 sec done=     10787 skipped=        76 prim-skipped=         0
    -> L=2 0 :     0.002 sec done=     13584 skipped=       144 prim-skipped=         0
    -> L=2 1 :     0.002 sec done=     10460 skipped=       118 prim-skipped=         0
    -> L=2 2 :     0.002 sec done=      3021 skipped=        36 prim-skipped=         0
    -> L=3 0 :     0.000 sec done=      2129 skipped=        10 prim-skipped=         0
    -> L=3 1 :     0.001 sec done=      1395 skipped=         0 prim-skipped=         0
    -> L=3 2 :     0.001 sec done=       744 skipped=         0 prim-skipped=         0
    -> L=3 3 :     0.000 sec done=        93 skipped=         0 prim-skipped=         0
done (   0.0 sec)
Reading the grid                                   ... done
Mapping shells                                     ... done
Starting the XC term evaluation                    ... done (   0.0 sec)
Transforming the Hamiltonian                       ... done (   0.0 sec)
Diagonalizing the Hamiltonian                      ... done (   0.0 sec)
Back transforming the eigenvectors                 ... done (   0.0 sec)
Now organizing SCF variables                       ... done
                      ------------------
                      INITIAL GUESS DONE (   0.1 sec)
                      ------------------
----------------------
INITIAL GUESS ORBITALS
----------------------
                      0         1         2         3         4         5   
                 -213.92777 -24.22259 -20.64084 -20.64084 -20.64084 -18.74203
                   1.00000   1.00000   1.00000   1.00000   1.00000   1.00000
                  --------  --------  --------  --------  --------  --------
  0Cr  1s         0.995285 -0.330913  0.000000  0.000000  0.000000  0.000225
  0Cr  2s         0.015271  1.040656 -0.000000 -0.000000 -0.000000 -0.000405
  0Cr  3s        -0.004034  0.025580 -0.000000 -0.000000  0.000000  0.003872
  0Cr  4s         0.004539 -0.019565  0.000000  0.000000 -0.000000 -0.019088
  0Cr  5s        -0.001372  0.006020 -0.000000 -0.000000  0.000000 -0.000355
  0Cr  1pz        0.000000  0.000000 -0.910807 -0.351275 -0.177328 -0.000000
  0Cr  1px       -0.000000  0.000000  0.073609  0.287130 -0.946861  0.000000
  0Cr  1py       -0.000000  0.000000  0.386550 -0.882366 -0.237522  0.000000
  0Cr  2pz        0.000000 -0.000000 -0.020737 -0.007998 -0.004037  0.000000
  0Cr  2px        0.000000 -0.000000  0.001676  0.006537 -0.021558 -0.000000
  0Cr  2py       -0.000000 -0.000000  0.008801 -0.020090 -0.005408 -0.000000
  0Cr  1dz2      -0.000000  0.000000 -0.000000 -0.000000 -0.000000  0.000000
  0Cr  1dxz      -0.000000 -0.000000  0.000000  0.000000  0.000000 -0.000000
  0Cr  1dyz       0.000000 -0.000000 -0.000000  0.000000  0.000000 -0.000000
  0Cr  1dx2y2     0.000000 -0.000000 -0.000000  0.000000  0.000000 -0.000000
  0Cr  1dxy      -0.000000 -0.000000  0.000000  0.000000  0.000000 -0.000000
  0Cr  2dz2       0.000000 -0.000000  0.000000  0.000000  0.000000 -0.000002
  0Cr  2dxz       0.000000 -0.000000 -0.000000 -0.000000 -0.000000  0.000004
  0Cr  2dyz      -0.000000  0.000000  0.000000 -0.000000 -0.000000  0.000003
  0Cr  2dx2y2     0.000000  0.000000  0.000000 -0.000000  0.000000  0.000001
  0Cr  2dxy       0.000000  0.000000  0.000000 -0.000000 -0.000000  0.000005
  0Cr  3pz       -0.000000  0.000000  0.008900  0.003433  0.001733 -0.000000
  0Cr  3px       -0.000000  0.000000 -0.000719 -0.002806  0.009253  0.000000
  0Cr  3py        0.000000  0.000000 -0.003777  0.008622  0.002321  0.000000
  0Cr  1f0        0.000000 -0.000000 -0.000080  0.000016 -0.000095  0.000000
  0Cr  1f+1      -0.000000 -0.000000 -0.000095 -0.000092  0.000058  0.000000
  0Cr  1f-1      -0.000000  0.000000  0.000022  0.000032 -0.000021 -0.000000
  0Cr  1f+2       0.000000 -0.000000  0.000002  0.000143 -0.000032  0.000000
  0Cr  1f-2       0.000000  0.000000 -0.000099  0.000083  0.000123  0.000000
  0Cr  1f+3      -0.000000  0.000000  0.000097 -0.000030  0.000050 -0.000000
  0Cr  1f-3      -0.000000 -0.000000 -0.000065 -0.000039 -0.000088  0.000000
  1O   1s         0.000045 -0.000152  0.000011  0.000034  0.000069  0.402190
  1O   2s         0.000442 -0.001756  0.000189  0.000602  0.001217 -0.020085
  1O   3s        -0.001056  0.004342 -0.000602 -0.001917 -0.003871  0.013325
  1O   1pz       -0.000048  0.000174  0.000302  0.000061 -0.000065  0.000338
  1O   1px       -0.000077  0.000280 -0.000058 -0.000203  0.000128  0.000544
  1O   1py       -0.000059  0.000217 -0.000161  0.000232 -0.000076  0.000422
  1O   2pz        0.000249 -0.000997 -0.001096  0.000068  0.000880 -0.001366
  1O   2px        0.000400 -0.001605  0.000385  0.001300  0.000494 -0.002200
  1O   2py        0.000310 -0.001243  0.000758 -0.000535  0.001075 -0.001704
  1O   1dz2       0.000009 -0.000034  0.000147  0.000033 -0.000025 -0.000041
  1O   1dxz      -0.000024  0.000088  0.000113 -0.000048 -0.000031  0.000106
  1O   1dyz      -0.000019  0.000068  0.000055  0.000071 -0.000073  0.000082
  1O   1dx2y2    -0.000008  0.000028  0.000028 -0.000178  0.000072  0.000034
  1O   1dxy      -0.000031  0.000109 -0.000100  0.000010 -0.000036  0.000132
  2O   1s         0.000045 -0.000152 -0.000011 -0.000034 -0.000069  0.402190
  2O   2s         0.000442 -0.001756 -0.000189 -0.000602 -0.001217 -0.020085
  2O   3s        -0.001056  0.004342  0.000602  0.001917  0.003871  0.013325
  2O   1pz        0.000048 -0.000174  0.000302  0.000061 -0.000065 -0.000338
  2O   1px        0.000077 -0.000280 -0.000058 -0.000203  0.000128 -0.000544
  2O   1py        0.000059 -0.000217 -0.000161  0.000232 -0.000076 -0.000422
  2O   2pz       -0.000249  0.000997 -0.001096  0.000068  0.000880  0.001366
  2O   2px       -0.000400  0.001605  0.000385  0.001300  0.000494  0.002200
  2O   2py       -0.000310  0.001243  0.000758 -0.000535  0.001075  0.001704
  2O   1dz2       0.000009 -0.000034 -0.000147 -0.000033  0.000025 -0.000041
  2O   1dxz      -0.000024  0.000088 -0.000113  0.000048  0.000031  0.000106
  2O   1dyz      -0.000019  0.000068 -0.000055 -0.000071  0.000073  0.000082
  2O   1dx2y2    -0.000008  0.000028 -0.000028  0.000178 -0.000072  0.000034
  2O   1dxy      -0.000031  0.000109  0.000100 -0.000010  0.000036  0.000132
  3O   1s         0.000045 -0.000152 -0.000053 -0.000048  0.000032  0.403243
  3O   2s         0.000442 -0.001756 -0.000928 -0.000839  0.000560 -0.020132
  3O   3s        -0.001056  0.004342  0.002954  0.002670 -0.001781  0.013348
  3O   1pz        0.000083 -0.000302  0.000152 -0.000029  0.000165 -0.000588
  3O   1px       -0.000067  0.000243  0.000111  0.000022  0.000252  0.000475
  3O   1py        0.000020 -0.000072 -0.000177  0.000275  0.000108 -0.000141
  3O   2pz       -0.000432  0.001731  0.000223  0.000860 -0.001148  0.002377
  3O   2px        0.000348 -0.001396 -0.001102 -0.000688 -0.000595 -0.001917
  3O   2py       -0.000103  0.000413  0.000896 -0.000909 -0.000547  0.000568
  3O   1dz2      -0.000017  0.000061 -0.000102  0.000048 -0.000154  0.000075
  3O   1dxz       0.000037 -0.000133 -0.000037 -0.000061 -0.000032 -0.000161
  3O   1dyz      -0.000011  0.000039  0.000081 -0.000118 -0.000079  0.000048
  3O   1dx2y2    -0.000014  0.000049  0.000039  0.000055  0.000101  0.000059
  3O   1dxy       0.000009 -0.000032 -0.000092  0.000095  0.000019 -0.000038
  4O   1s         0.000045 -0.000152  0.000053  0.000048 -0.000032  0.403243
  4O   2s         0.000442 -0.001756  0.000928  0.000839 -0.000560 -0.020132
  4O   3s        -0.001056  0.004342 -0.002954 -0.002670  0.001781  0.013348
  4O   1pz       -0.000083  0.000302  0.000152 -0.000029  0.000165  0.000588
  4O   1px        0.000067 -0.000243  0.000111  0.000022  0.000252 -0.000475
  4O   1py       -0.000020  0.000072 -0.000177  0.000275  0.000108  0.000141
  4O   2pz        0.000432 -0.001731  0.000223  0.000860 -0.001148 -0.002377
  4O   2px       -0.000348  0.001396 -0.001102 -0.000688 -0.000595  0.001917
  4O   2py        0.000103 -0.000413  0.000896 -0.000909 -0.000547 -0.000568
  4O   1dz2      -0.000017  0.000061  0.000102 -0.000048  0.000154  0.000075
  4O   1dxz       0.000037 -0.000133  0.000037  0.000061  0.000032 -0.000161
  4O   1dyz      -0.000011  0.000039 -0.000081  0.000118  0.000079  0.000048
  4O   1dx2y2    -0.000014  0.000049 -0.000039 -0.000055 -0.000101  0.000059
  4O   1dxy       0.000009 -0.000032  0.000092 -0.000095 -0.000019 -0.000038
  5O   1s         0.000045 -0.000152 -0.000056  0.000051 -0.000017  0.403240
  5O   2s         0.000442 -0.001756 -0.000991  0.000901 -0.000292 -0.020132
  5O   3s        -0.001056  0.004342  0.003152 -0.002867  0.000930  0.013348
  5O   1pz        0.000051 -0.000185  0.000211  0.000225  0.000030 -0.000360
  5O   1px        0.000037 -0.000134 -0.000106 -0.000028  0.000311 -0.000261
  5O   1py       -0.000088  0.000321  0.000056  0.000136  0.000141  0.000627
  5O   2pz       -0.000265  0.001060 -0.000294 -0.001379  0.000041  0.001456
  5O   2px       -0.000192  0.000769  0.000811 -0.000244 -0.001112  0.001056
  5O   2py        0.000460 -0.001844 -0.001159  0.000313 -0.000833 -0.002532
  5O   1dz2       0.000008 -0.000028 -0.000112 -0.000112 -0.000016 -0.000033
  5O   1dxz      -0.000012  0.000045  0.000002 -0.000054 -0.000094  0.000054
  5O   1dyz       0.000030 -0.000107  0.000055  0.000109 -0.000037 -0.000130
  5O   1dx2y2     0.000021 -0.000077 -0.000033 -0.000040 -0.000147 -0.000093
  5O   1dxy       0.000022 -0.000078 -0.000094 -0.000019  0.000122 -0.000095
  6O   1s         0.000045 -0.000152  0.000056 -0.000051  0.000017  0.403240
  6O   2s         0.000442 -0.001756  0.000991 -0.000901  0.000292 -0.020132
  6O   3s        -0.001056  0.004342 -0.003152  0.002867 -0.000930  0.013348
  6O   1pz       -0.000051  0.000185  0.000211  0.000225  0.000030  0.000360
  6O   1px       -0.000037  0.000134 -0.000106 -0.000028  0.000311  0.000261
  6O   1py        0.000088 -0.000321  0.000056  0.000136  0.000141 -0.000627
  6O   2pz        0.000265 -0.001060 -0.000294 -0.001379  0.000041 -0.001456
  6O   2px        0.000192 -0.000769  0.000811 -0.000244 -0.001112 -0.001056
  6O   2py       -0.000460  0.001844 -0.001159  0.000313 -0.000833  0.002532
  6O   1dz2       0.000008 -0.000028  0.000112  0.000112  0.000016 -0.000033
  6O   1dxz      -0.000012  0.000045 -0.000002  0.000054  0.000094  0.000054
  6O   1dyz       0.000030 -0.000107 -0.000055 -0.000109  0.000037 -0.000130
  6O   1dx2y2     0.000021 -0.000077  0.000033  0.000040  0.000147 -0.000093
  6O   1dxy       0.000022 -0.000078  0.000094  0.000019 -0.000122 -0.000095
                      6         7         8         9        10        11   
                 -18.74177 -18.74177 -18.74177 -18.74163 -18.74163  -2.76814
                   1.00000   1.00000   1.00000   1.00000   1.00000   1.00000
                  --------  --------  --------  --------  --------  --------
  0Cr  1s         0.000000  0.000000  0.000000  0.000000  0.000000  0.122522
  0Cr  2s        -0.000000 -0.000000 -0.000000 -0.000000 -0.000000 -0.456732
  0Cr  3s         0.000000  0.000000  0.000000  0.000000  0.000005  1.080368
  0Cr  4s        -0.000000 -0.000000 -0.000000 -0.000000 -0.000023  0.004221
  0Cr  5s         0.000000  0.000000  0.000000 -0.000000 -0.000000 -0.001668
  0Cr  1pz        0.000276  0.000077  0.000140  0.000000  0.000000  0.000000
  0Cr  1px       -0.000159  0.000158  0.000226 -0.000000 -0.000000  0.000000
  0Cr  1py       -0.000015 -0.000266  0.000175 -0.000000  0.000000  0.000000
  0Cr  2pz       -0.000920 -0.000256 -0.000468 -0.000000 -0.000000 -0.000000
  0Cr  2px        0.000531 -0.000527 -0.000756  0.000000  0.000000 -0.000000
  0Cr  2py        0.000050  0.000887 -0.000584  0.000000 -0.000000 -0.000000
  0Cr  1dz2       0.000000 -0.000000  0.000000 -0.000154 -0.000100  0.000005
  0Cr  1dxz      -0.000000  0.000000 -0.000000  0.000307  0.000261 -0.000003
  0Cr  1dyz       0.000000  0.000000 -0.000000 -0.000252  0.000204 -0.000003
  0Cr  1dx2y2     0.000000  0.000000 -0.000000 -0.000217  0.000085 -0.000002
  0Cr  1dxy      -0.000000  0.000000 -0.000000 -0.000078  0.000328 -0.000001
  0Cr  2dz2      -0.000000  0.000000 -0.000000  0.002069  0.001349 -0.000003
  0Cr  2dxz       0.000000 -0.000000  0.000000 -0.004127 -0.003510  0.000003
  0Cr  2dyz      -0.000000 -0.000000  0.000000  0.003387 -0.002746  0.000002
  0Cr  2dx2y2    -0.000000 -0.000000  0.000000  0.002912 -0.001148  0.000001
  0Cr  2dxy       0.000000 -0.000000  0.000000  0.001052 -0.004402  0.000002
  0Cr  3pz        0.009474  0.002640  0.004820  0.000000  0.000000  0.000000
  0Cr  3px       -0.005472  0.005431  0.007780 -0.000000 -0.000000 -0.000000
  0Cr  3py       -0.000515 -0.009138  0.006016 -0.000000  0.000000  0.000000
  0Cr  1f0       -0.000107 -0.000303 -0.000322  0.000000  0.000000 -0.000000
  0Cr  1f+1      -0.000500  0.000158 -0.000008 -0.000000 -0.000000 -0.000000
  0Cr  1f-1       0.000140 -0.000077 -0.000007  0.000000  0.000000  0.000000
  0Cr  1f+2       0.000258 -0.000446  0.000123  0.000000  0.000000  0.000000
  0Cr  1f-2      -0.000330 -0.000283  0.000479 -0.000000  0.000000  0.000000
  0Cr  1f+3       0.000194  0.000322  0.000162  0.000000 -0.000000  0.000000
  0Cr  1f-3      -0.000151 -0.000110 -0.000378 -0.000000 -0.000000 -0.000000
  1O   1s        -0.000673  0.000321 -0.698082  0.002363  0.570577  0.000357
  1O   2s         0.000031 -0.000015  0.032482 -0.000107 -0.025725 -0.000132
  1O   3s        -0.000017  0.000008 -0.017932  0.000053  0.012850  0.001863
  1O   1pz        0.000203  0.000057 -0.000488  0.000001  0.000308 -0.000199
  1O   1px       -0.000118  0.000117 -0.000785  0.000002  0.000495 -0.000320
  1O   1py       -0.000012 -0.000196 -0.000609  0.000002  0.000384 -0.000248
  1O   2pz       -0.001045 -0.000293  0.001851 -0.000006 -0.001416 -0.000806
  1O   2px        0.000608 -0.000602  0.002978 -0.000009 -0.002279 -0.001297
  1O   2py        0.000060  0.001008  0.002308 -0.000007 -0.001765 -0.001005
  1O   1dz2       0.000162  0.000045  0.000059 -0.000014 -0.000098 -0.000118
  1O   1dxz       0.000096  0.000096 -0.000155  0.000028  0.000256  0.000307
  1O   1dyz       0.000111 -0.000058 -0.000120 -0.000022  0.000198  0.000238
  1O   1dx2y2    -0.000081  0.000199 -0.000050 -0.000019  0.000083  0.000099
  1O   1dxy      -0.000076 -0.000078 -0.000193 -0.000006  0.000319  0.000383
  2O   1s         0.000673 -0.000321  0.698082  0.002363  0.570577  0.000357
  2O   2s        -0.000031  0.000015 -0.032482 -0.000107 -0.025725 -0.000132
  2O   3s         0.000017 -0.000008  0.017932  0.000053  0.012850  0.001863
  2O   1pz        0.000203  0.000057 -0.000488 -0.000001 -0.000308  0.000199
  2O   1px       -0.000118  0.000117 -0.000785 -0.000002 -0.000495  0.000320
  2O   1py       -0.000012 -0.000196 -0.000609 -0.000002 -0.000384  0.000248
  2O   2pz       -0.001045 -0.000293  0.001851  0.000006  0.001416  0.000806
  2O   2px        0.000608 -0.000602  0.002978  0.000009  0.002279  0.001297
  2O   2py        0.000060  0.001008  0.002308  0.000007  0.001765  0.001005
  2O   1dz2      -0.000162 -0.000045 -0.000059 -0.000014 -0.000098 -0.000118
  2O   1dxz      -0.000096 -0.000096  0.000155  0.000028  0.000256  0.000307
  2O   1dyz      -0.000111  0.000058  0.000120 -0.000022  0.000198  0.000238
  2O   1dx2y2     0.000081 -0.000199  0.000050 -0.000019  0.000083  0.000099
  2O   1dxy       0.000076  0.000078  0.000193 -0.000006  0.000319  0.000383
  3O   1s         0.671378 -0.191233 -0.000736 -0.494882 -0.282502  0.000357
  3O   2s        -0.031239  0.008898  0.000034  0.022310  0.012733 -0.000133
  3O   3s         0.017246 -0.004912 -0.000019 -0.011141 -0.006355  0.001866
  3O   1pz       -0.000784  0.000338  0.000105  0.000463  0.000264  0.000345
  3O   1px        0.000680 -0.000110  0.000166 -0.000374 -0.000213 -0.000278
  3O   1py       -0.000247 -0.000129  0.000129  0.000111  0.000063  0.000082
  3O   2pz        0.002934 -0.001426 -0.000537 -0.002131 -0.001216  0.001400
  3O   2px       -0.002605  0.000314 -0.000856  0.001718  0.000980 -0.001129
  3O   2py        0.001008  0.000739 -0.000666 -0.000509 -0.000290  0.000335
  3O   1dz2       0.000063 -0.000176 -0.000144 -0.000155 -0.000090  0.000215
  3O   1dxz      -0.000223  0.000071 -0.000066  0.000332  0.000197 -0.000464
  3O   1dyz       0.000103  0.000108 -0.000123 -0.000113 -0.000033  0.000137
  3O   1dx2y2     0.000087 -0.000009  0.000132 -0.000131 -0.000056  0.000171
  3O   1dxy      -0.000092 -0.000118  0.000051  0.000066  0.000070 -0.000111
  4O   1s        -0.671378  0.191233  0.000736 -0.494882 -0.282502  0.000357
  4O   2s         0.031239 -0.008898 -0.000034  0.022310  0.012733 -0.000133
  4O   3s        -0.017246  0.004912  0.000019 -0.011141 -0.006355  0.001866
  4O   1pz       -0.000784  0.000338  0.000105 -0.000463 -0.000264 -0.000345
  4O   1px        0.000680 -0.000110  0.000166  0.000374  0.000213  0.000278
  4O   1py       -0.000247 -0.000129  0.000129 -0.000111 -0.000063 -0.000082
  4O   2pz        0.002934 -0.001426 -0.000537  0.002131  0.001216 -0.001400
  4O   2px       -0.002605  0.000314 -0.000856 -0.001718 -0.000980  0.001129
  4O   2py        0.001008  0.000739 -0.000666  0.000509  0.000290 -0.000335
  4O   1dz2      -0.000063  0.000176  0.000144 -0.000155 -0.000090  0.000215
  4O   1dxz       0.000223 -0.000071  0.000066  0.000332  0.000197 -0.000464
  4O   1dyz      -0.000103 -0.000108  0.000123 -0.000113 -0.000033  0.000137
  4O   1dx2y2    -0.000087  0.000009 -0.000132 -0.000131 -0.000056  0.000171
  4O   1dxy       0.000092  0.000118 -0.000051  0.000066  0.000070 -0.000111
  5O   1s         0.191233  0.671378  0.000125  0.492528 -0.286589  0.000357
  5O   2s        -0.008898 -0.031239 -0.000006 -0.022204  0.012918 -0.000132
  5O   3s         0.004912  0.017246  0.000003  0.011088 -0.006447  0.001865
  5O   1pz        0.000031 -0.000549  0.000103 -0.000283  0.000164  0.000211
  5O   1px       -0.000242 -0.000322  0.000167 -0.000204  0.000119  0.000153
  5O   1py        0.000289  0.000856  0.000129  0.000491 -0.000286 -0.000367
  5O   2pz       -0.000352  0.002147 -0.000532  0.001299 -0.000756  0.000857
  5O   2px        0.001108  0.001169 -0.000859  0.000942 -0.000548  0.000623
  5O   2py       -0.001151 -0.003230 -0.000666 -0.002259  0.001314 -0.001491
  5O   1dz2      -0.000160 -0.000005 -0.000088 -0.000077  0.000028 -0.000097
  5O   1dxz       0.000028  0.000074 -0.000118  0.000130 -0.000037  0.000157
  5O   1dyz       0.000075 -0.000218  0.000025 -0.000267  0.000161 -0.000375
  5O   1dx2y2    -0.000023 -0.000135 -0.000169 -0.000195  0.000110 -0.000270
  5O   1dxy      -0.000171 -0.000095  0.000096 -0.000185  0.000133 -0.000272
  6O   1s        -0.191233 -0.671378 -0.000125  0.492528 -0.286589  0.000357
  6O   2s         0.008898  0.031239  0.000006 -0.022204  0.012918 -0.000132
  6O   3s        -0.004912 -0.017246 -0.000003  0.011088 -0.006447  0.001865
  6O   1pz        0.000031 -0.000549  0.000103  0.000283 -0.000164 -0.000211
  6O   1px       -0.000242 -0.000322  0.000167  0.000204 -0.000119 -0.000153
  6O   1py        0.000289  0.000856  0.000129 -0.000491  0.000286  0.000367
  6O   2pz       -0.000352  0.002147 -0.000532 -0.001299  0.000756 -0.000857
  6O   2px        0.001108  0.001169 -0.000859 -0.000942  0.000548 -0.000623
  6O   2py       -0.001151 -0.003230 -0.000666  0.002259 -0.001314  0.001491
  6O   1dz2       0.000160  0.000005  0.000088 -0.000077  0.000028 -0.000097
  6O   1dxz      -0.000028 -0.000074  0.000118  0.000130 -0.000037  0.000157
  6O   1dyz      -0.000075  0.000218 -0.000025 -0.000267  0.000161 -0.000375
  6O   1dx2y2     0.000023  0.000135  0.000169 -0.000195  0.000110 -0.000270
  6O   1dxy       0.000171  0.000095 -0.000096 -0.000185  0.000133 -0.000272
                     12        13        14        15        16        17   
                  -1.77286  -1.77284  -1.77284  -0.88737  -0.87397  -0.87396
                   1.00000   1.00000   1.00000   1.00000   1.00000   1.00000
                  --------  --------  --------  --------  --------  --------
  0Cr  1s         0.000000  0.000000  0.000000  0.007882  0.000000 -0.000000
  0Cr  2s        -0.000000 -0.000000 -0.000000 -0.025313 -0.000000  0.000000
  0Cr  3s         0.000000  0.000000  0.000000  0.093842  0.000000 -0.000000
  0Cr  4s        -0.000000 -0.000000  0.000000 -0.100809 -0.000000  0.000000
  0Cr  5s         0.000000  0.000000 -0.000000  0.009389  0.000000  0.000000
  0Cr  1pz       -0.364161 -0.054550 -0.118199 -0.000000  0.014323  0.019531
  0Cr  1px        0.087151  0.158684 -0.341736 -0.000000  0.008252 -0.016871
  0Cr  1py        0.096704 -0.348430 -0.137130  0.000000 -0.020926  0.006715
  0Cr  2pz        1.004002  0.150396  0.325878  0.000000 -0.043020 -0.058662
  0Cr  2px       -0.240276 -0.437496  0.942175  0.000000 -0.024785  0.050672
  0Cr  2py       -0.266614  0.960630  0.378072 -0.000000  0.062850 -0.020169
  0Cr  1dz2       0.000000  0.000000  0.000000 -0.000000  0.000000 -0.000000
  0Cr  1dxz      -0.000000 -0.000000 -0.000000  0.000006 -0.000000  0.000000
  0Cr  1dyz       0.000000 -0.000000 -0.000000  0.000009 -0.000000  0.000000
  0Cr  1dx2y2     0.000000 -0.000000 -0.000000  0.000006 -0.000000  0.000000
  0Cr  1dxy      -0.000000 -0.000000 -0.000000  0.000011 -0.000000  0.000000
  0Cr  2dz2      -0.000000  0.000000 -0.000000 -0.000006  0.000000 -0.000000
  0Cr  2dxz       0.000000 -0.000000  0.000000  0.000002 -0.000000  0.000000
  0Cr  2dyz      -0.000000  0.000000 -0.000000  0.000004 -0.000000  0.000000
  0Cr  2dx2y2    -0.000000  0.000000 -0.000000 -0.000004  0.000000  0.000000
  0Cr  2dxy       0.000000  0.000000 -0.000000  0.000012 -0.000000  0.000000
  0Cr  3pz       -0.011058 -0.001655 -0.003584  0.000000  0.024265  0.033062
  0Cr  3px        0.002645  0.004814 -0.010362 -0.000000  0.013964 -0.028566
  0Cr  3py        0.002935 -0.010570 -0.004158  0.000000 -0.035385  0.011384
  0Cr  1f0       -0.000086  0.000058 -0.000136  0.000000 -0.001566  0.000006
  0Cr  1f+1      -0.000157 -0.000113  0.000041 -0.000000 -0.000122 -0.002493
  0Cr  1f-1       0.000037  0.000040 -0.000026  0.000000 -0.000113  0.000749
  0Cr  1f+2       0.000042  0.000201 -0.000014  0.000000 -0.001549  0.001895
  0Cr  1f-2      -0.000141  0.000113  0.000183  0.000000 -0.001747 -0.000978
  0Cr  1f+3       0.000121 -0.000080  0.000073 -0.000000  0.001776  0.000343
  0Cr  1f-3      -0.000086 -0.000018 -0.000144  0.000000 -0.000785 -0.000515
  1O   1s         0.000395  0.000893  0.003210 -0.124563  0.005526  0.002727
  1O   2s         0.000505  0.001143  0.004108 -0.252015  0.011160  0.005507
  1O   3s         0.001264  0.002852  0.010248 -0.169962  0.007837  0.003873
  1O   1pz       -0.000060 -0.000550 -0.002018  0.007780  0.001365  0.002117
  1O   1px       -0.000459 -0.001018 -0.003167  0.012523  0.000482 -0.002188
  1O   1py       -0.000371 -0.000534 -0.002522  0.009689 -0.002791  0.000598
  1O   2pz        0.001884 -0.000550 -0.002462  0.005035 -0.000198 -0.000114
  1O   2px       -0.001181 -0.002427 -0.003017  0.008131 -0.000290 -0.000115
  1O   2py       -0.001097  0.001068 -0.003135  0.006306 -0.000188 -0.000119
  1O   1dz2      -0.000346 -0.000068 -0.000171  0.000370 -0.000114 -0.000146
  1O   1dxz      -0.000165  0.000271  0.000551 -0.000972 -0.000090 -0.000040
  1O   1dyz      -0.000112 -0.000043  0.000495 -0.000752  0.000044 -0.000113
  1O   1dx2y2     0.000044  0.000446  0.000066 -0.000323 -0.000150  0.000154
  1O   1dxy       0.000270  0.000095  0.000695 -0.001209  0.000147  0.000067
  2O   1s        -0.000395 -0.000893 -0.003210 -0.124563 -0.005526 -0.002727
  2O   2s        -0.000505 -0.001143 -0.004108 -0.252015 -0.011160 -0.005507
  2O   3s        -0.001264 -0.002852 -0.010248 -0.169962 -0.007837 -0.003873
  2O   1pz       -0.000060 -0.000550 -0.002018 -0.007780  0.001365  0.002117
  2O   1px       -0.000459 -0.001018 -0.003167 -0.012523  0.000482 -0.002188
  2O   1py       -0.000371 -0.000534 -0.002522 -0.009689 -0.002791  0.000598
  2O   2pz        0.001884 -0.000550 -0.002462 -0.005035 -0.000198 -0.000114
  2O   2px       -0.001181 -0.002427 -0.003017 -0.008131 -0.000290 -0.000115
  2O   2py       -0.001097  0.001068 -0.003135 -0.006306 -0.000188 -0.000119
  2O   1dz2       0.000346  0.000068  0.000171  0.000370  0.000114  0.000146
  2O   1dxz       0.000165 -0.000271 -0.000551 -0.000972  0.000090  0.000040
  2O   1dyz       0.000112  0.000043 -0.000495 -0.000752 -0.000044  0.000113
  2O   1dx2y2    -0.000044 -0.000446 -0.000066 -0.000323  0.000150 -0.000154
  2O   1dxy      -0.000270 -0.000095 -0.000695 -0.001209 -0.000147 -0.000067
  3O   1s        -0.002731 -0.001764  0.000827 -0.124648 -0.016946 -0.220238
  3O   2s        -0.003493 -0.002257  0.001058 -0.252184 -0.034213 -0.444623
  3O   3s        -0.008726 -0.005633  0.002641 -0.170090 -0.024060 -0.312816
  3O   1pz       -0.002879 -0.001957  0.000995 -0.013517  0.000094 -0.018076
  3O   1px        0.002432  0.001516 -0.000566  0.010886  0.002217  0.014422
  3O   1py       -0.000786 -0.000286  0.000296 -0.003219 -0.002797 -0.004065
  3O   2pz       -0.002454 -0.002715  0.002172 -0.008763 -0.000961 -0.012274
  3O   2px        0.003271  0.001471  0.000982  0.007075  0.000742  0.009914
  3O   2py       -0.001736  0.001449  0.001200 -0.002121 -0.000198 -0.002984
  3O   1dz2      -0.000131 -0.000376  0.000409 -0.000687  0.000080 -0.001042
  3O   1dxz       0.000719  0.000505 -0.000096  0.001462  0.000163  0.002191
  3O   1dyz      -0.000327  0.000131  0.000251 -0.000441 -0.000183 -0.000652
  3O   1dx2y2    -0.000308 -0.000213 -0.000168 -0.000534 -0.000080 -0.000800
  3O   1dxy       0.000310 -0.000132 -0.000105  0.000340  0.000179  0.000496
  4O   1s         0.002731  0.001764 -0.000827 -0.124648  0.016946  0.220238
  4O   2s         0.003493  0.002257 -0.001058 -0.252184  0.034213  0.444623
  4O   3s         0.008726  0.005633 -0.002641 -0.170090  0.024060  0.312816
  4O   1pz       -0.002879 -0.001957  0.000995  0.013517  0.000094 -0.018076
  4O   1px        0.002432  0.001516 -0.000566 -0.010886  0.002217  0.014422
  4O   1py       -0.000786 -0.000286  0.000296  0.003219 -0.002797 -0.004065
  4O   2pz       -0.002454 -0.002715  0.002172  0.008763 -0.000961 -0.012274
  4O   2px        0.003271  0.001471  0.000982 -0.007075  0.000742  0.009914
  4O   2py       -0.001736  0.001449  0.001200  0.002121 -0.000198 -0.002984
  4O   1dz2       0.000131  0.000376 -0.000409 -0.000687 -0.000080  0.001042
  4O   1dxz      -0.000719 -0.000505  0.000096  0.001462 -0.000163 -0.002191
  4O   1dyz       0.000327 -0.000131 -0.000251 -0.000441  0.000183  0.000652
  4O   1dx2y2     0.000308  0.000213  0.000168 -0.000534  0.000080  0.000800
  4O   1dxy      -0.000310  0.000132  0.000105  0.000340 -0.000179 -0.000496
  5O   1s        -0.001908  0.002710 -0.000519 -0.124681 -0.220189  0.017018
  5O   2s        -0.002440  0.003468 -0.000665 -0.252247 -0.444511  0.034358
  5O   3s        -0.006096  0.008656 -0.001658 -0.170148 -0.312779  0.024166
  5O   1pz       -0.001120  0.001899 -0.000295 -0.008264 -0.010767  0.003224
  5O   1px       -0.001001  0.001270 -0.000076 -0.006006 -0.008078 -0.001257
  5O   1py        0.002236 -0.003063  0.000697  0.014395  0.019224 -0.000895
  5O   2pz        0.000254  0.003217  0.000188 -0.005405 -0.007590  0.000549
  5O   2px       -0.002015  0.001094  0.001737 -0.003898 -0.005458  0.000446
  5O   2py        0.002916 -0.002821  0.001815  0.009336  0.013073 -0.001015
  5O   1dz2       0.000362  0.000052  0.000117  0.000306  0.000473  0.000121
  5O   1dxz      -0.000153  0.000292  0.000175 -0.000502 -0.000752  0.000053
  5O   1dyz       0.000190 -0.000718  0.000126  0.001175  0.001747 -0.000271
  5O   1dx2y2     0.000304 -0.000339  0.000396  0.000857  0.001289 -0.000112
  5O   1dxy       0.000487 -0.000324 -0.000162  0.000874  0.001321  0.000039
  6O   1s         0.001908 -0.002710  0.000519 -0.124681  0.220189 -0.017018
  6O   2s         0.002440 -0.003468  0.000665 -0.252247  0.444511 -0.034358
  6O   3s         0.006096 -0.008656  0.001658 -0.170148  0.312779 -0.024166
  6O   1pz       -0.001120  0.001899 -0.000295  0.008264 -0.010767  0.003224
  6O   1px       -0.001001  0.001270 -0.000076  0.006006 -0.008078 -0.001257
  6O   1py        0.002236 -0.003063  0.000697 -0.014395  0.019224 -0.000895
  6O   2pz        0.000254  0.003217  0.000188  0.005405 -0.007590  0.000549
  6O   2px       -0.002015  0.001094  0.001737  0.003898 -0.005458  0.000446
  6O   2py        0.002916 -0.002821  0.001815 -0.009336  0.013073 -0.001015
  6O   1dz2      -0.000362 -0.000052 -0.000117  0.000306 -0.000473 -0.000121
  6O   1dxz       0.000153 -0.000292 -0.000175 -0.000502  0.000752 -0.000053
  6O   1dyz      -0.000190  0.000718 -0.000126  0.001175 -0.001747  0.000271
  6O   1dx2y2    -0.000304  0.000339 -0.000396  0.000857 -0.001289  0.000112
  6O   1dxy      -0.000487  0.000324  0.000162  0.000874 -0.001321 -0.000039
                     18        19        20        21        22        23   
                  -0.87395  -0.87295  -0.87294  -0.41095  -0.39099  -0.39098
                   1.00000   1.00000   1.00000   1.00000   1.00000   1.00000
                  --------  --------  --------  --------  --------  --------
  0Cr  1s        -0.000000  0.000002 -0.000003  0.018199  0.000003  0.000001
  0Cr  2s         0.000000 -0.000005  0.000009 -0.054249 -0.000010 -0.000001
  0Cr  3s        -0.000000  0.000021 -0.000035  0.237712  0.000042  0.000008
  0Cr  4s         0.000000 -0.000036  0.000029 -0.465526 -0.000081 -0.000018
  0Cr  5s        -0.000000 -0.000011  0.000028  0.181372  0.000045 -0.000026
  0Cr  1pz       -0.011162 -0.000000 -0.000000  0.000000 -0.000000  0.000000
  0Cr  1px       -0.018933  0.000000  0.000000 -0.000000 -0.000000  0.000000
  0Cr  1py       -0.015105 -0.000000 -0.000000 -0.000000  0.000000  0.000000
  0Cr  2pz        0.033526  0.000000  0.000000 -0.000000  0.000000 -0.000000
  0Cr  2px        0.056866 -0.000000 -0.000000  0.000000  0.000000 -0.000000
  0Cr  2py        0.045368  0.000000  0.000000  0.000000 -0.000000 -0.000000
  0Cr  1dz2      -0.000000 -0.012101 -0.011175 -0.000057  0.111012  0.003878
  0Cr  1dxz       0.000000  0.023216  0.027680 -0.000005 -0.242697  0.021969
  0Cr  1dyz       0.000000 -0.025332  0.014275 -0.000023  0.053523  0.188805
  0Cr  1dx2y2     0.000000 -0.020429  0.004298 -0.000044  0.077189  0.117572
  0Cr  1dxy       0.000000 -0.011835  0.027765  0.000057 -0.075470  0.189188
  0Cr  2dz2      -0.000000 -0.012330 -0.011421 -0.000049  0.059944  0.002080
  0Cr  2dxz       0.000000  0.023705  0.028274 -0.000016 -0.131070  0.011854
  0Cr  2dyz       0.000000 -0.025868  0.014568 -0.000021  0.028931  0.101951
  0Cr  2dx2y2     0.000000 -0.020837  0.004377 -0.000040  0.041669  0.063465
  0Cr  2dxy       0.000000 -0.012060  0.028362  0.000038 -0.040773  0.102161
  0Cr  3pz       -0.018906  0.000000 -0.000000 -0.000000 -0.000000  0.000000
  0Cr  3px       -0.032046  0.000000  0.000000 -0.000000 -0.000000  0.000000
  0Cr  3py       -0.025584 -0.000000 -0.000000 -0.000000 -0.000000  0.000000
  0Cr  1f0        0.001491 -0.000000 -0.000000  0.000000  0.000000 -0.000000
  0Cr  1f+1       0.000008  0.000000  0.000000 -0.000000 -0.000000  0.000000
  0Cr  1f-1       0.000038 -0.000000 -0.000000  0.000000  0.000000 -0.000000
  0Cr  1f+2      -0.000604 -0.000000 -0.000000  0.000000  0.000000 -0.000000
  0Cr  1f-2      -0.002335 -0.000000  0.000000 -0.000000 -0.000000 -0.000000
  0Cr  1f+3      -0.000725  0.000000  0.000000 -0.000000 -0.000000  0.000000
  0Cr  1f-3       0.001771  0.000000 -0.000000  0.000000  0.000000 -0.000000
  1O   1s        -0.220828 -0.029567  0.178605  0.024132  0.011288 -0.015867
  1O   2s        -0.445821 -0.059953  0.362159  0.051955  0.021742 -0.030561
  1O   3s        -0.313638 -0.041315  0.249579  0.063699  0.037855 -0.053202
  1O   1pz        0.010451  0.001479 -0.008934  0.106652  0.089398 -0.125704
  1O   1px        0.016711  0.002381 -0.014379  0.171809  0.143586 -0.202147
  1O   1py        0.012872  0.001841 -0.011121  0.133152  0.111493 -0.156354
  1O   2pz        0.007070  0.000492 -0.002964  0.067016  0.053996 -0.075928
  1O   2px        0.011425  0.000797 -0.004808  0.107993  0.086698 -0.122095
  1O   2py        0.008872  0.000622 -0.003742  0.083689  0.067349 -0.094401
  1O   1dz2       0.000552 -0.000025 -0.000365  0.000827  0.000888 -0.000784
  1O   1dxz      -0.001466  0.000013  0.000954 -0.002151 -0.002183  0.002147
  1O   1dyz      -0.001133 -0.000257  0.000696 -0.001664 -0.000992  0.002157
  1O   1dx2y2    -0.000490 -0.000170  0.000293 -0.000696 -0.000254  0.001021
  1O   1dxy      -0.001814 -0.000234  0.001145 -0.002682 -0.002063  0.003139
  2O   1s         0.220828 -0.029567  0.178605  0.024132  0.011288 -0.015867
  2O   2s         0.445821 -0.059953  0.362159  0.051955  0.021742 -0.030561
  2O   3s         0.313638 -0.041315  0.249579  0.063699  0.037855 -0.053202
  2O   1pz        0.010451 -0.001479  0.008934 -0.106652 -0.089398  0.125704
  2O   1px        0.016711 -0.002381  0.014379 -0.171809 -0.143586  0.202147
  2O   1py        0.012872 -0.001841  0.011121 -0.133152 -0.111493  0.156354
  2O   2pz        0.007070 -0.000492  0.002964 -0.067016 -0.053996  0.075928
  2O   2px        0.011425 -0.000797  0.004808 -0.107993 -0.086698  0.122095
  2O   2py        0.008872 -0.000622  0.003742 -0.083689 -0.067349  0.094401
  2O   1dz2      -0.000552 -0.000025 -0.000365  0.000827  0.000888 -0.000784
  2O   1dxz       0.001466  0.000013  0.000954 -0.002151 -0.002183  0.002147
  2O   1dyz       0.001133 -0.000257  0.000696 -0.001664 -0.000992  0.002157
  2O   1dx2y2     0.000490 -0.000170  0.000293 -0.000696 -0.000254  0.001021
  2O   1dxy       0.001814 -0.000234  0.001145 -0.002682 -0.002063  0.003139
  3O   1s        -0.003144 -0.139884 -0.114822  0.024139 -0.019377 -0.001838
  3O   2s        -0.006345 -0.283639 -0.232822  0.051972 -0.037314 -0.003545
  3O   3s        -0.004474 -0.195488 -0.160466  0.063711 -0.065006 -0.006151
  3O   1pz       -0.001583 -0.012149 -0.009972 -0.185370  0.266232  0.025331
  3O   1px       -0.001960  0.009781  0.008028  0.149534 -0.214791 -0.020301
  3O   1py       -0.001819 -0.002892 -0.002374 -0.044212  0.063219  0.005969
  3O   2pz       -0.000162 -0.004054 -0.003319 -0.116513  0.160783  0.015313
  3O   2px        0.000171  0.003279  0.002686  0.093978 -0.129707 -0.012252
  3O   2py       -0.000022 -0.001000 -0.000819 -0.027792  0.038135  0.003596
  3O   1dz2      -0.000158 -0.000512 -0.000427 -0.001507  0.002103  0.000182
  3O   1dxz      -0.000037  0.001064  0.000925  0.003249 -0.004538 -0.000300
  3O   1dyz      -0.000138 -0.000439 -0.000144 -0.000962  0.001290  0.000655
  3O   1dx2y2     0.000123 -0.000461 -0.000248 -0.001193  0.001631  0.000474
  3O   1dxy       0.000063  0.000137  0.000343  0.000773 -0.001124  0.000464
  4O   1s         0.003144 -0.139884 -0.114822  0.024139 -0.019377 -0.001838
  4O   2s         0.006345 -0.283639 -0.232822  0.051972 -0.037314 -0.003545
  4O   3s         0.004474 -0.195488 -0.160466  0.063711 -0.065006 -0.006151
  4O   1pz       -0.001583  0.012149  0.009972  0.185370 -0.266232 -0.025331
  4O   1px       -0.001960 -0.009781 -0.008028 -0.149534  0.214791  0.020301
  4O   1py       -0.001819  0.002892  0.002374  0.044212 -0.063219 -0.005969
  4O   2pz       -0.000162  0.004054  0.003319  0.116513 -0.160783 -0.015313
  4O   2px        0.000171 -0.003279 -0.002686 -0.093978  0.129707  0.012252
  4O   2py       -0.000022  0.001000  0.000819  0.027792 -0.038135 -0.003596
  4O   1dz2       0.000158 -0.000512 -0.000427 -0.001507  0.002103  0.000182
  4O   1dxz       0.000037  0.001064  0.000925  0.003249 -0.004538 -0.000300
  4O   1dyz       0.000138 -0.000439 -0.000144 -0.000962  0.001290  0.000655
  4O   1dx2y2    -0.000123 -0.000461 -0.000248 -0.001193  0.001631  0.000474
  4O   1dxy      -0.000063  0.000137  0.000343  0.000773 -0.001124  0.000464
  5O   1s        -0.005300  0.169386 -0.063646  0.024134  0.008104  0.017706
  5O   2s        -0.010701  0.343445 -0.129048  0.051963  0.015612  0.034102
  5O   3s        -0.007525  0.236755 -0.088965  0.063690  0.027169  0.059385
  5O   1pz       -0.001593  0.008987 -0.003377 -0.113471 -0.067966 -0.148730
  5O   1px       -0.002411  0.006535 -0.002455 -0.082227 -0.049436 -0.107831
  5O   1py       -0.001229 -0.015660  0.005883  0.197466  0.118675  0.259310
  5O   2pz       -0.000161  0.003062 -0.001147 -0.071312 -0.041017 -0.089776
  5O   2px       -0.000101  0.002184 -0.000821 -0.051683 -0.029857 -0.065100
  5O   2py        0.000336 -0.005231  0.001963  0.124131  0.071690  0.156637
  5O   1dz2      -0.000076 -0.000309  0.000019  0.000676  0.000659  0.000743
  5O   1dxz      -0.000139  0.000532  0.000024 -0.001097 -0.001246 -0.001120
  5O   1dyz       0.000066 -0.001048  0.000423  0.002623  0.001447  0.003372
  5O   1dx2y2    -0.000142 -0.000784  0.000274  0.001890  0.001158  0.002383
  5O   1dxy       0.000132 -0.000748  0.000425  0.001911  0.000727  0.002613
  6O   1s         0.005300  0.169386 -0.063646  0.024134  0.008104  0.017706
  6O   2s         0.010701  0.343445 -0.129048  0.051963  0.015612  0.034102
  6O   3s         0.007525  0.236755 -0.088965  0.063690  0.027169  0.059385
  6O   1pz       -0.001593 -0.008987  0.003377  0.113471  0.067966  0.148730
  6O   1px       -0.002411 -0.006535  0.002455  0.082227  0.049436  0.107831
  6O   1py       -0.001229  0.015660 -0.005883 -0.197466 -0.118675 -0.259310
  6O   2pz       -0.000161 -0.003062  0.001147  0.071312  0.041017  0.089776
  6O   2px       -0.000101 -0.002184  0.000821  0.051683  0.029857  0.065100
  6O   2py        0.000336  0.005231 -0.001963 -0.124131 -0.071690 -0.156637
  6O   1dz2       0.000076 -0.000309  0.000019  0.000676  0.000659  0.000743
  6O   1dxz       0.000139  0.000532  0.000024 -0.001097 -0.001246 -0.001120
  6O   1dyz      -0.000066 -0.001048  0.000423  0.002623  0.001447  0.003372
  6O   1dx2y2     0.000142 -0.000784  0.000274  0.001890  0.001158  0.002383
  6O   1dxy      -0.000132 -0.000748  0.000425  0.001911  0.000727  0.002613
                     24        25        26        27        28        29   
                  -0.38233  -0.38233  -0.38231  -0.37859  -0.37858  -0.37857
                   1.00000   1.00000   1.00000   1.00000   1.00000   1.00000
                  --------  --------  --------  --------  --------  --------
  0Cr  1s         0.000000 -0.000000 -0.000000  0.000001  0.000001  0.000009
  0Cr  2s        -0.000000  0.000000  0.000000 -0.000002 -0.000004 -0.000027
  0Cr  3s         0.000000 -0.000000 -0.000000  0.000015  0.000022  0.000123
  0Cr  4s        -0.000000  0.000000  0.000000 -0.000032 -0.000094 -0.000238
  0Cr  5s         0.000000  0.000000 -0.000000 -0.000035  0.000061  0.000053
  0Cr  1pz        0.040215  0.018562  0.015866  0.000000 -0.000000 -0.000000
  0Cr  1px        0.024213 -0.034234 -0.021327 -0.000000  0.000000 -0.000000
  0Cr  1py        0.003128  0.026396 -0.038817  0.000000 -0.000000  0.000000
  0Cr  2pz       -0.127822 -0.058999 -0.050430 -0.000000  0.000000  0.000000
  0Cr  2px       -0.076960  0.108811  0.067786  0.000000 -0.000000  0.000000
  0Cr  2py       -0.009942 -0.083899  0.123377 -0.000000  0.000000 -0.000000
  0Cr  1dz2       0.000000 -0.000000  0.000000 -0.027263 -0.140135  0.108765
  0Cr  1dxz      -0.000000  0.000000  0.000000  0.000496 -0.000703  0.107509
  0Cr  1dyz      -0.000000  0.000000  0.000000 -0.118211  0.072945  0.037421
  0Cr  1dx2y2    -0.000000 -0.000000  0.000000  0.149014  0.049845  0.065387
  0Cr  1dxy      -0.000000  0.000000  0.000000  0.026041 -0.100857 -0.092422
  0Cr  2dz2       0.000000  0.000000  0.000000 -0.018608 -0.095489  0.074150
  0Cr  2dxz      -0.000000 -0.000000  0.000000  0.000445 -0.000576  0.073241
  0Cr  2dyz      -0.000000  0.000000  0.000000 -0.080619  0.049814  0.025418
  0Cr  2dx2y2    -0.000000 -0.000000  0.000000  0.101505  0.034050  0.044551
  0Cr  2dxy      -0.000000 -0.000000  0.000000  0.017731 -0.068752 -0.063109
  0Cr  3pz        0.171621  0.079226  0.067697  0.000000 -0.000000 -0.000000
  0Cr  3px        0.103328 -0.146070 -0.090972 -0.000000  0.000000 -0.000000
  0Cr  3py        0.013340  0.112650 -0.165640  0.000000 -0.000000  0.000000
  0Cr  1f0       -0.001382  0.000525 -0.000076 -0.000000  0.000000  0.000000
  0Cr  1f+1      -0.000592 -0.001482 -0.000612 -0.000000  0.000000  0.000000
  0Cr  1f-1       0.000100  0.000494  0.000129  0.000000  0.000000 -0.000000
  0Cr  1f+2       0.000126  0.001619 -0.000575  0.000000 -0.000000 -0.000000
  0Cr  1f-2       0.000324 -0.000108 -0.002075 -0.000000 -0.000000  0.000000
  0Cr  1f+3       0.001139 -0.000358  0.000591  0.000000  0.000000 -0.000000
  0Cr  1f-3      -0.001335 -0.000030  0.000301 -0.000000  0.000000  0.000000
  1O   1s        -0.018329  0.000802  0.014734  0.000005  0.000001 -0.000021
  1O   2s        -0.037179  0.001633  0.029857 -0.000003 -0.000002 -0.000093
  1O   3s        -0.062395  0.002709  0.050243  0.000046  0.000013  0.000093
  1O   1pz       -0.038550  0.077775  0.211582 -0.123445 -0.049943  0.239297
  1O   1px       -0.213678 -0.114918  0.165154  0.207101  0.058314 -0.002849
  1O   1py       -0.224050  0.109249  0.044408 -0.168228 -0.035219 -0.188565
  1O   2pz       -0.022354  0.050184  0.134716 -0.086136 -0.034845  0.166898
  1O   2px       -0.134024 -0.074490  0.103448  0.144480  0.040674 -0.002024
  1O   2py       -0.141639  0.070504  0.026139 -0.117352 -0.024573 -0.131526
  1O   1dz2      -0.001823 -0.000869 -0.000747  0.001565  0.000195 -0.002792
  1O   1dxz       0.000895 -0.000014 -0.002726 -0.000084  0.000160 -0.002546
  1O   1dyz       0.001091 -0.001430 -0.001535  0.002067  0.000994 -0.000746
  1O   1dx2y2     0.000118  0.002288 -0.001227 -0.003635 -0.000880 -0.001550
  1O   1dxy       0.003122 -0.000175 -0.000893  0.000188 -0.000461  0.002043
  2O   1s         0.018329 -0.000802 -0.014734  0.000005  0.000001 -0.000021
  2O   2s         0.037179 -0.001633 -0.029857 -0.000003 -0.000002 -0.000093
  2O   3s         0.062395 -0.002709 -0.050243  0.000046  0.000013  0.000093
  2O   1pz       -0.038550  0.077775  0.211582  0.123445  0.049943 -0.239297
  2O   1px       -0.213678 -0.114918  0.165154 -0.207101 -0.058314  0.002849
  2O   1py       -0.224050  0.109249  0.044408  0.168228  0.035219  0.188565
  2O   2pz       -0.022354  0.050184  0.134716  0.086136  0.034845 -0.166898
  2O   2px       -0.134024 -0.074490  0.103448 -0.144480 -0.040674  0.002024
  2O   2py       -0.141639  0.070504  0.026139  0.117352  0.024573  0.131526
  2O   1dz2       0.001823  0.000869  0.000747  0.001565  0.000195 -0.002792
  2O   1dxz      -0.000895  0.000014  0.002726 -0.000084  0.000160 -0.002546
  2O   1dyz      -0.001091  0.001430  0.001535  0.002067  0.000994 -0.000746
  2O   1dx2y2    -0.000118 -0.002288  0.001227 -0.003635 -0.000880 -0.001550
  2O   1dxy      -0.003122  0.000175  0.000893  0.000188 -0.000461  0.002043
  3O   1s         0.008211  0.020077  0.009119 -0.000033  0.000028  0.000014
  3O   2s         0.016663  0.040690  0.018517 -0.000092  0.000119  0.000039
  3O   3s         0.027944  0.068453  0.030982 -0.000008 -0.000093  0.000010
  3O   1pz        0.003484 -0.290435 -0.103833  0.073263  0.173007 -0.057707
  3O   1px        0.209356  0.162115  0.051710  0.151361  0.157133 -0.100502
  3O   1py       -0.023302  0.013043 -0.184476  0.206369 -0.194901 -0.098105
  3O   2pz        0.004255 -0.182887 -0.064936  0.051115  0.120653 -0.040268
  3O   2px        0.133739  0.100863  0.031622  0.105610  0.109594 -0.070108
  3O   2py       -0.014558  0.009610 -0.118774  0.143997 -0.135941 -0.068458
  3O   1dz2       0.001629 -0.002412 -0.000506  0.001601  0.003504 -0.000967
  3O   1dxz       0.001822  0.003115  0.000866  0.001228  0.000231 -0.000354
  3O   1dyz      -0.000059 -0.000178 -0.002336  0.002565 -0.001775 -0.001356
  3O   1dx2y2    -0.001736 -0.000998  0.000326 -0.001765 -0.000882  0.001600
  3O   1dxy       0.000667 -0.000084  0.001805 -0.001663  0.002250  0.000432
  4O   1s        -0.008211 -0.020077 -0.009119 -0.000033  0.000028  0.000014
  4O   2s        -0.016663 -0.040690 -0.018517 -0.000092  0.000119  0.000039
  4O   3s        -0.027944 -0.068453 -0.030982 -0.000008 -0.000093  0.000010
  4O   1pz        0.003484 -0.290435 -0.103833 -0.073263 -0.173007  0.057707
  4O   1px        0.209356  0.162115  0.051710 -0.151361 -0.157133  0.100502
  4O   1py       -0.023302  0.013043 -0.184476 -0.206369  0.194901  0.098105
  4O   2pz        0.004255 -0.182887 -0.064936 -0.051115 -0.120653  0.040268
  4O   2px        0.133739  0.100863  0.031622 -0.105610 -0.109594  0.070108
  4O   2py       -0.014558  0.009610 -0.118774 -0.143997  0.135941  0.068458
  4O   1dz2      -0.001629  0.002412  0.000506  0.001601  0.003504 -0.000967
  4O   1dxz      -0.001822 -0.003115 -0.000866  0.001228  0.000231 -0.000354
  4O   1dyz       0.000059  0.000178  0.002336  0.002565 -0.001775 -0.001356
  4O   1dx2y2     0.001736  0.000998 -0.000326 -0.001765 -0.000882  0.001600
  4O   1dxy      -0.000667  0.000084 -0.001805 -0.001663  0.002250  0.000432
  5O   1s         0.012261 -0.012244  0.015918  0.000032 -0.000027  0.000041
  5O   2s         0.024832 -0.024855  0.032273  0.000092 -0.000116  0.000110
  5O   3s         0.041862 -0.041632  0.054237  0.000014  0.000105  0.000042
  5O   1pz        0.015890  0.203726 -0.115250 -0.129106  0.213598 -0.102732
  5O   1px       -0.006976 -0.030896 -0.206566 -0.055456 -0.198795 -0.199741
  5O   1py        0.246110 -0.134721  0.158581 -0.096994  0.039713 -0.141877
  5O   2pz        0.012116  0.129873 -0.072119 -0.090045  0.148998 -0.071648
  5O   2px       -0.003168 -0.021310 -0.131845 -0.038684 -0.138664 -0.139335
  5O   2py        0.155952 -0.083944  0.098403 -0.067681  0.027673 -0.098993
  5O   1dz2       0.001802  0.001078  0.000556 -0.001907  0.002531 -0.001078
  5O   1dxz       0.000394  0.000515 -0.001723 -0.001205 -0.000371 -0.001866
  5O   1dyz       0.000762 -0.002816  0.001575  0.000646 -0.002449  0.000437
  5O   1dx2y2     0.002567 -0.001301  0.000144 -0.001199 -0.000420 -0.002953
  5O   1dxy       0.000810  0.000294  0.002765  0.000300  0.002700  0.001674
  6O   1s        -0.012261  0.012244 -0.015918  0.000032 -0.000027  0.000041
  6O   2s        -0.024832  0.024855 -0.032273  0.000092 -0.000116  0.000110
  6O   3s        -0.041862  0.041632 -0.054237  0.000014  0.000105  0.000042
  6O   1pz        0.015890  0.203726 -0.115250  0.129106 -0.213598  0.102732
  6O   1px       -0.006976 -0.030896 -0.206566  0.055456  0.198795  0.199741
  6O   1py        0.246110 -0.134721  0.158581  0.096994 -0.039713  0.141877
  6O   2pz        0.012116  0.129873 -0.072119  0.090045 -0.148998  0.071648
  6O   2px       -0.003168 -0.021310 -0.131845  0.038684  0.138664  0.139335
  6O   2py        0.155952 -0.083944  0.098403  0.067681 -0.027673  0.098993
  6O   1dz2      -0.001802 -0.001078 -0.000556 -0.001907  0.002531 -0.001078
  6O   1dxz      -0.000394 -0.000515  0.001723 -0.001205 -0.000371 -0.001866
  6O   1dyz      -0.000762  0.002816 -0.001575  0.000646 -0.002449  0.000437
  6O   1dx2y2    -0.002567  0.001301 -0.000144 -0.001199 -0.000420 -0.002953
  6O   1dxy      -0.000810 -0.000294 -0.002765  0.000300  0.002700  0.001674
                     30        31        32        33        34        35   
                  -0.34694  -0.34693  -0.34692  -0.34569  -0.34567  -0.34566
                   1.00000   1.00000   1.00000   1.00000   1.00000   1.00000
                  --------  --------  --------  --------  --------  --------
  0Cr  1s        -0.000000  0.000000 -0.000000  0.000000 -0.000000  0.000000
  0Cr  2s         0.000000 -0.000000  0.000000 -0.000000 -0.000000 -0.000000
  0Cr  3s        -0.000000  0.000000 -0.000000  0.000000 -0.000000  0.000000
  0Cr  4s        -0.000000 -0.000000  0.000000 -0.000000  0.000000 -0.000000
  0Cr  5s         0.000000 -0.000000 -0.000000  0.000000 -0.000000  0.000000
  0Cr  1pz        0.000011 -0.000023 -0.000086  0.000003 -0.004505  0.007666
  0Cr  1px       -0.000096  0.000008  0.000006  0.003605  0.007004  0.004135
  0Cr  1py       -0.000005 -0.000020  0.000042  0.008131 -0.003118 -0.001823
  0Cr  2pz       -0.000032  0.000068  0.000257 -0.000012  0.013436 -0.022869
  0Cr  2px        0.000285 -0.000025 -0.000020 -0.010751 -0.020893 -0.012335
  0Cr  2py        0.000021  0.000061 -0.000126 -0.024251  0.009301  0.005441
  0Cr  1dz2      -0.000000 -0.000000  0.000000  0.000000  0.000000 -0.000000
  0Cr  1dxz       0.000000 -0.000000 -0.000000  0.000000 -0.000000  0.000000
  0Cr  1dyz       0.000000  0.000000  0.000000  0.000000 -0.000000 -0.000000
  0Cr  1dx2y2     0.000000  0.000000 -0.000000  0.000000  0.000000 -0.000000
  0Cr  1dxy       0.000000 -0.000000 -0.000000  0.000000 -0.000000  0.000000
  0Cr  2dz2      -0.000000  0.000000 -0.000000  0.000000 -0.000000  0.000000
  0Cr  2dxz       0.000000 -0.000000  0.000000 -0.000000  0.000000 -0.000000
  0Cr  2dyz       0.000000  0.000000  0.000000 -0.000000 -0.000000  0.000000
  0Cr  2dx2y2     0.000000  0.000000 -0.000000 -0.000000 -0.000000  0.000000
  0Cr  2dxy       0.000000  0.000000  0.000000 -0.000000  0.000000  0.000000
  0Cr  3pz       -0.000068  0.000162  0.000428  0.000182  0.023967 -0.040551
  0Cr  3px        0.000537  0.000073  0.000022 -0.019128 -0.037073 -0.021880
  0Cr  3py       -0.000237  0.000100 -0.000226 -0.043109  0.016470  0.009582
  0Cr  1f0        0.000691  0.001549  0.001350 -0.000524 -0.001178 -0.003933
  0Cr  1f+1      -0.000272 -0.001317 -0.002134  0.000266  0.004538 -0.001582
  0Cr  1f-1       0.002243  0.002013 -0.003187  0.000050 -0.001413  0.000190
  0Cr  1f+2      -0.001636 -0.001722 -0.001503  0.002600 -0.004059 -0.000600
  0Cr  1f-2      -0.000402  0.001723  0.000586  0.005655  0.001633 -0.000525
  0Cr  1f+3      -0.002280  0.002137 -0.000420 -0.000924  0.000389  0.003600
  0Cr  1f-3      -0.002571  0.001244 -0.000955 -0.001818  0.000045 -0.003415
  1O   1s        -0.000006  0.000002  0.000012  0.000616  0.000110  0.000489
  1O   2s        -0.000037  0.000030  0.000058  0.001649  0.000304  0.001344
  1O   3s        -0.000010 -0.000091 -0.000071  0.008693  0.001546  0.006502
  1O   1pz        0.025642  0.052908 -0.297503  0.002709  0.144029 -0.244170
  1O   1px        0.079878 -0.208131  0.091265 -0.113421 -0.220312 -0.129129
  1O   1py       -0.120406  0.227433  0.121407 -0.256780  0.096511  0.059069
  1O   2pz        0.017683  0.036453 -0.204868 -0.003040  0.095861 -0.167671
  1O   2px        0.054998 -0.143285  0.062874 -0.084023 -0.149355 -0.092623
  1O   2py       -0.082845  0.156613  0.083621 -0.178507  0.063683  0.035081
  1O   1dz2       0.000165 -0.000246  0.002120 -0.001246 -0.001095  0.000508
  1O   1dxz      -0.001135  0.000226  0.001427  0.001029  0.000093  0.002274
  1O   1dyz       0.000873 -0.000937  0.001119  0.001360 -0.000859  0.001252
  1O   1dx2y2    -0.000658  0.002666  0.000107 -0.000255  0.001656  0.001139
  1O   1dxy       0.000544 -0.000361 -0.001219  0.002724  0.000557  0.000838
  2O   1s         0.000006 -0.000002 -0.000012 -0.000616 -0.000110 -0.000489
  2O   2s         0.000037 -0.000030 -0.000058 -0.001649 -0.000304 -0.001344
  2O   3s         0.000010  0.000091  0.000071 -0.008693 -0.001546 -0.006502
  2O   1pz        0.025642  0.052908 -0.297503  0.002709  0.144029 -0.244170
  2O   1px        0.079878 -0.208131  0.091265 -0.113421 -0.220312 -0.129129
[...]
   0 Cr   24.0000    0    52.000    0.236863   -0.075722   -0.286873
   1 O     8.0000    0    15.999    6.301499    5.365270    4.757164
   2 O     8.0000    0    15.999   -7.206545   -5.097311   -3.634384
   3 O     8.0000    0    15.999    7.277438   -2.167642   -9.012024
   4 O     8.0000    0    15.999   -5.628429    1.656814    6.994480
   5 O     8.0000    0    15.999   -3.775004    8.028113   -3.932751
   6 O     8.0000    0    15.999    2.794179   -7.709523    5.114387

--------------------------------
INTERNAL COORDINATES (ANGSTROEM)
--------------------------------
 Cr     0   0   0     0.000000000000     0.00000000     0.00000000
 O      1   0   0     5.070901474142     0.00000000     0.00000000
 O      1   2   0     5.070901408011   166.66027643     0.00000000
 O      1   2   3     6.035267349925    96.66973632   179.64666324
 O      1   2   4     5.031956129338    83.33033321   179.91351877
 O      1   2   5     5.159400045373    89.15831266    83.22261511
 O      1   2   5     5.130246751416    89.24885299   276.87708190

---------------------------
INTERNAL COORDINATES (A.U.)
---------------------------
 Cr     0   0   0     0.000000000000     0.00000000     0.00000000
 O      1   0   0     9.582615038227     0.00000000     0.00000000
 O      1   2   0     9.582614913256   166.66027643     0.00000000
 O      1   2   3    11.405002436355    96.66973632   179.64666324
 O      1   2   4     9.509019002356    83.33033321   179.91351877
 O      1   2   5     9.749853101095    89.15831266    83.22261511
 O      1   2   5     9.694761359616    89.24885299   276.87708190



           ************************************************************
           *        Program running with 4 parallel MPI-processes     *
           *              working on a common directory               *
           ************************************************************
------------------------------------------------------------------------------
                   ___                                                        
                  /   \      - P O W E R E D   B Y -                         
                 /     \                                                     
                 |  |  |   _    _      __       _____    __    __             
                 |  |  |  | |  | |    /  \     |  _  \  |  |  /  |          
                  \  \/   | |  | |   /    \    | | | |  |  | /  /          
                 / \  \   | |__| |  /  /\  \   | |_| |  |  |/  /          
                |  |  |   |  __  | /  /__\  \  |    /   |      \           
                |  |  |   | |  | | |   __   |  |    \   |  |\   \          
                \     /   | |  | | |  |  |  |  | |\  \  |  | \   \       
                 \___/    |_|  |_| |__|  |__|  |_| \__\ |__|  \__/        
                                                                              
                      - O R C A' S   B I G   F R I E N D -                    
                                      &                                       
                       - I N T E G R A L  F E E D E R -                       
                                                                              
 v1 FN, 2020, v2 2021                                                         
------------------------------------------------------------------------------


Reading SHARK input file test.SHARKINP.tmp ... ok
----------------------
SHARK INTEGRAL PACKAGE
----------------------

Number of atoms                             ...      7
Number of basis functions                   ...    115
Number of shells                            ...     47
Maximum angular momentum                    ...      3
Integral batch strategy                     ... SHARK/LIBINT Hybrid
RI-J (if used) integral strategy            ... SPLIT-RIJ (Revised 2003 algorithm where possible)
Printlevel                                  ...      1
Contraction scheme used                     ... SEGMENTED contraction
Coulomb Range Separation                    ... NOT USED
Exchange Range Separation                   ... NOT USED
Finite Nucleus Model                        ... NOT USED
Auxiliary Coulomb fitting basis             ... NOT available
Auxiliary J/K fitting basis                 ... NOT available
Auxiliary Correlation fitting basis         ... NOT available
Auxiliary 'external' fitting basis          ... NOT available
Integral threshold                          ...     2.500000e-11
Primitive cut-off                           ...     2.500000e-12
Primitive pair pre-selection threshold      ...     2.500000e-12

Calculating pre-screening integrals         ... done (  0.0 sec) Dimension = 47
Organizing shell pair data                  ... done (  0.0 sec)
Shell pair information
Total number of shell pairs                 ...      1128
Shell pairs after pre-screening             ...       456
Total number of primitive shell pairs       ...      5269
Primitive shell pairs kept                  ...      1602
          la=0 lb=0:    111 shell pairs
          la=1 lb=0:    141 shell pairs
          la=1 lb=1:     57 shell pairs
          la=2 lb=0:     64 shell pairs
          la=2 lb=1:     45 shell pairs
          la=2 lb=2:     15 shell pairs
          la=3 lb=0:     11 shell pairs
          la=3 lb=1:      9 shell pairs
          la=3 lb=2:      2 shell pairs
          la=3 lb=3:      1 shell pairs

Calculating one electron integrals          ... done (  0.0 sec)
Calculating Nuclear repulsion               ... done (  0.0 sec) ENN=    181.551626622866 Eh

SHARK setup successfully completed in   0.1 seconds

Maximum memory used throughout the entire GTOINT-calculation: 12.9 MB


           ************************************************************
           *        Program running with 4 parallel MPI-processes     *
           *              working on a common directory               *
           ************************************************************

Diagonalization of the overlap matrix:
Smallest eigenvalue                        ... 1.096e-01
Time for diagonalization                   ...    0.002 sec
Threshold for overlap eigenvalues          ... 1.000e-08
Number of eigenvalues below threshold      ... 0
Time for construction of square roots      ...    0.001 sec
Total time needed                          ...    0.003 sec

--------------
SCF ITERATIONS
--------------
ITER       Energy         Delta-E        Max-DP      RMS-DP      [F,P]     Damp
               ***  Starting incremental Fock matrix formation  ***
  0  -1487.6123395478   0.000000000000 0.00077155  0.00002332  0.0004857 0.7000
  1  -1487.6123442497  -0.000004701904 0.00077991  0.00002093  0.0003920 0.7000
                               ***Turning on DIIS***
  2  -1487.6123479286  -0.000003678882 0.00247327  0.00005587  0.0003094 0.0000
  3  -1487.6122045563   0.000143372216 0.00083284  0.00001173  0.0001145 0.0000
  4  -1487.6122057370  -0.000001180636 0.00053681  0.00000832  0.0000776 0.0000
  5  -1487.6121994518   0.000006285183 0.00029353  0.00000339  0.0000223 0.0000
  6  -1487.6123409256  -0.000141473784 0.00017477  0.00000202  0.0000123 0.0000
  7  -1487.6124073452  -0.000066419653 0.00016017  0.00000181  0.0000105 0.0000
  8  -1487.6123768246   0.000030520642 0.00026066  0.00000290  0.0000087 0.0000
  9  -1487.6123932355  -0.000016410939 0.00031347  0.00000347  0.0000058 0.0000
 10  -1487.6123638309   0.000029404624 0.00012781  0.00000142  0.0000020 0.0000
 11  -1487.6123580869   0.000005744022 0.00002554  0.00000029  0.0000019 0.0000
 12  -1487.6123576082   0.000000478689 0.00000670  0.00000010  0.0000019 0.0000
 13  -1487.6123567343   0.000000873870 0.00000851  0.00000013  0.0000018 0.0000
 14  -1487.6123574885  -0.000000754224 0.00000617  0.00000013  0.0000018 0.0000
 15  -1487.6123576725  -0.000000183910 0.00000810  0.00000020  0.0000018 0.0000
 16  -1487.6123589213  -0.000001248882 0.00001215  0.00000037  0.0000017 0.0000
 17  -1487.6123592059  -0.000000284542 0.00002598  0.00000076  0.0000015 0.0000
 18  -1487.6123611001  -0.000001894219 0.00004124  0.00000118  0.0000013 0.0000
                            ***DIIS convergence achieved***

               *****************************************************
               *                     SUCCESS                       *
               *           SCF CONVERGED AFTER  19 CYCLES          *
               *****************************************************

Total Energy       :        -1487.61235867 Eh          -40479.99024 eV
  Last Energy change         ...    2.4305e-06  Tolerance :   1.0000e-08
  Last MAX-Density change    ...    3.7612e-05  Tolerance :   1.0000e-07
             **** THE GBW FILE WAS UPDATED (test.gbw) ****
             **** DENSITY test.scfp WAS UPDATED ****
             **** ENERGY FILE WAS UPDATED (test.en.tmp) ****
----------------------
UHF SPIN CONTAMINATION
----------------------

Expectation value of <S**2>     :    11.746937
Ideal value S*(S+1) for S=2.5   :     8.750000
Deviation                       :     2.996937

             **** THE GBW FILE WAS UPDATED (test.gbw) ****
             **** DENSITY test.scfp WAS UPDATED ****
Total SCF time: 0 days 0 hours 0 min 1 sec 

Maximum memory used throughout the entire SCF-calculation: 226.1 MB

-------------------------   --------------------
FINAL SINGLE POINT ENERGY     -1487.612358669594
-------------------------   --------------------



           ************************************************************
           *        Program running with 4 parallel MPI-processes     *
           *              working on a common directory               *
           ************************************************************
------------------------------------------------------------------------------
                         ORCA SCF GRADIENT CALCULATION
------------------------------------------------------------------------------

Gradient of the Hartree-Fock SCF energy:
Hartree-Fock type                ... UHF
Number of operators              ...    2
Number of atoms                  ...    7
Basis set dimensions             ...  115
Integral neglect threshold       ... 2.5e-11
Integral primitive cutoff        ... 2.5e-12
SHARK Integral package           ... ON

Nuc. rep. gradient       (SHARK) ... done (  0.0 sec)
HCore & Overlap gradient (SHARK) ... done (  0.0 sec)
Two-Electron gradient    (SHARK) ... done (  0.4 sec)

------------------
CARTESIAN GRADIENT
------------------

   1   Cr  :    0.000176930   -0.000175244   -0.000066313
   2   O   :   -0.025137964   -0.022535437   -0.020878794
   3   O   :    0.030821315    0.020807515    0.013884563
   4   O   :   -0.036726455    0.010909074    0.045517884
   5   O   :    0.025136253   -0.007433330   -0.031194458
   6   O   :    0.016213922   -0.032793011    0.014786445
   7   O   :   -0.010484001    0.031220434   -0.022049327

Difference to translation invariance:
           :    0.0000000000   -0.0000000000    0.0000000000

Difference to rotation invariance:
           :   -0.0000001266   -0.0000000981   -0.0000000786

Norm of the cartesian gradient     ...    0.1071403434
RMS gradient                       ...    0.0233799397
MAX gradient                       ...    0.0455178840

-------
TIMINGS
-------

Total SCF gradient time            ...        0.436 sec

One electron gradient       ....       0.010 sec  (  2.2%)
Two electron gradient       ....       0.373 sec  ( 85.6%)

Maximum memory used throughout the entire SCFGRAD-calculation: 26.6 MB
------------------------------------------------------------------------------
                         ORCA GEOMETRY RELAXATION STEP
------------------------------------------------------------------------------

Reading the OPT-File                    .... done
Getting information on internals        .... done
Copying old internal coords+grads       .... done
Making the new internal coordinates     .... (new redundants).... done
Validating the new internal coordinates .... (new redundants).... done
Calculating the B-matrix                .... done
Calculating the G,G- and P matrices     .... done
Transforming gradient to internals      .... done
Projecting the internal gradient        .... done
Number of atoms                         ....   7
Number of internal coordinates          ....  18
Current Energy                          .... -1487.612358670 Eh
Current gradient norm                   ....     0.107140343 Eh/bohr
Maximum allowed component of the step   ....  0.300
Current trust radius                    ....  0.300
Resetting Hessian after 50 BFGS Update Steps....
Build internal Hessian                  .... (Almloef) done
Updating Hessian with the last 5 steps  .... done
Forming the augmented Hessian           .... done
Diagonalizing the augmented Hessian     .... done
Last element of RFO vector              ....  0.720041043
Lowest eigenvalues of augmented Hessian:
 -0.103252763  0.000013024  0.000014378  0.000017928  0.000019946
Length of the computed step             ....  0.963738784
Warning: the length of the step is outside the trust region - taking restricted step instead
The input lambda is                     ....    -0.103253
   iter:   1  x=   -0.153448  g=   16.710693 f(x)=     0.838792
   iter:   2  x=   -0.217657  g=    5.463717 f(x)=     0.350822
   iter:   3  x=   -0.285447  g=    2.000038 f(x)=     0.135581
   iter:   4  x=   -0.333150  g=    0.909263 f(x)=     0.043375
   iter:   5  x=   -0.348143  g=    0.578619 f(x)=     0.008676
   iter:   6  x=   -0.349205  g=    0.508558 f(x)=     0.000540
   iter:   7  x=   -0.349210  g=    0.504033 f(x)=     0.000002
   iter:   8  x=   -0.349210  g=    0.504013 f(x)=     0.000000
   iter:   9  x=   -0.349210  g=    0.504013 f(x)=     0.000000
The output lambda is                    ....    -0.349210 (9 iterations)
The final length of the internal step   ....  0.300000000
Converting the step to cartesian space:
 Initial RMS(Int)=    0.0707106781
Transforming coordinates:
 Iter   0:  RMS(Cart)=    0.0654791814 RMS(Int)=    0.0707109961
 Iter   1:  RMS(Cart)=    0.0000150112 RMS(Int)=    0.0000034178
 Iter   2:  RMS(Cart)=    0.0000001713 RMS(Int)=    0.0000000402
 Iter   3:  RMS(Cart)=    0.0000000020 RMS(Int)=    0.0000000005
done
Storing new coordinates                 .... done

                                .--------------------.
          ----------------------|Geometry convergence|-------------------------
          Item                value                   Tolerance       Converged
          ---------------------------------------------------------------------
          Energy change      -0.0324981437            0.0000050000      NO
          RMS gradient        0.0252533785            0.0001000000      NO
          MAX gradient        0.0594955303            0.0003000000      NO
          RMS step            0.0707106781            0.0020000000      NO
          MAX step            0.1660395514            0.0040000000      NO
          ........................................................
          Max(Bonds)      0.0879      Max(Angles)    0.04
          Max(Dihed)        0.00      Max(Improp)    0.00
          ---------------------------------------------------------------------

The optimization has not yet converged - more geometry cycles are needed


    ---------------------------------------------------------------------------
                         Redundant Internal Coordinates
                            (Angstroem and degrees)

        Definition                    Value    dE/dq     Step     New-Value
    ----------------------------------------------------------------------------
     1. B(O   1,Cr  0)                5.0709 -0.039695  0.0590    5.1299   
     2. B(O   2,Cr  0)                5.0709 -0.039695  0.0590    5.1299   
     3. B(O   3,Cr  0)                6.0353 -0.059496  0.0879    6.1231   
     4. B(O   4,Cr  0)                5.0320 -0.040745  0.0605    5.0924   
     5. B(O   5,Cr  0)                5.1594 -0.039458  0.0585    5.2179   
     6. B(O   6,Cr  0)                5.1302 -0.039633  0.0588    5.1890   
     7. A(O   2,Cr  0,O   3)           96.67  0.000103   -0.02     96.65   
     8. A(O   1,Cr  0,O   4)           83.33 -0.000103    0.02     83.35   
     9. A(O   2,Cr  0,O   4)           83.33 -0.000103    0.02     83.35   
    10. A(O   1,Cr  0,O   5)           89.16 -0.000039    0.01     89.16   
    11. A(O   2,Cr  0,O   5)           89.16 -0.000039    0.01     89.16   
    12. A(O   3,Cr  0,O   5)           96.91  0.000225   -0.03     96.88   
    13. A(O   4,Cr  0,O   5)           83.17 -0.000143    0.02     83.19   
    14. A(O   1,Cr  0,O   6)           89.25 -0.000032    0.00     89.25   
    15. A(O   2,Cr  0,O   6)           89.25 -0.000032    0.00     89.25   
    16. A(O   3,Cr  0,O   6)           96.83  0.000174   -0.03     96.80   
    17. A(O   4,Cr  0,O   6)           83.08 -0.000255    0.04     83.12   
    18. A(O   1,Cr  0,O   3)           96.67  0.000103   -0.02     96.65   
    ----------------------------------------------------------------------------




    ----------------------------------------------------------------------------
                                  WARNING !!!
       The optimization did not converge but reached the maximum number of
       optimization cycles.
       Please check your results very carefully.
    ----------------------------------------------------------------------------



                            ***************************************
                            *     ORCA property calculations      *
                            ***************************************

                                    ---------------------
                                    Active property flags
                                    ---------------------
   (+) Dipole Moment


------------------------------------------------------------------------------
                       ORCA ELECTRIC PROPERTIES CALCULATION
------------------------------------------------------------------------------

Dipole Moment Calculation                       ... on
Quadrupole Moment Calculation                   ... off
Polarizability Calculation                      ... off
GBWName                                         ... test.gbw
Electron density                                ... test.scfp
The origin for moment calculation is the CENTER OF MASS  = ( 0.057296, -0.018354 -0.069345)

-------------
DIPOLE MOMENT
-------------
                                X             Y             Z
Electronic contribution:     -6.59896       1.94186       8.20137
Nuclear contribution   :     -0.35676       0.11429       0.43179
                        -----------------------------------------
Total Dipole Moment    :     -6.95572       2.05615       8.63316
                        -----------------------------------------
Magnitude (a.u.)       :     11.27569
Magnitude (Debye)      :     28.66053



--------------------
Rotational spectrum 
--------------------
 
Rotational constants in cm-1:     0.010006     0.009036     0.008924 
Rotational constants in MHz :   299.959976   270.878430   267.531739 

 Dipole components along the rotational axes: 
x,y,z [a.u.] :    11.275578    -0.050559     0.000000 
x,y,z [Debye]:    28.660242    -0.128511     0.000000 

 

Timings for individual modules:

Sum of individual times         ...      715.245 sec (=  11.921 min)
GTO integral calculation        ...       13.831 sec (=   0.231 min)   1.9 %
SCF iterations                  ...      645.429 sec (=  10.757 min)  90.2 %
SCF Gradient evaluation         ...       55.035 sec (=   0.917 min)   7.7 %
Geometry relaxation             ...        0.950 sec (=   0.016 min)   0.1 %
                             ****ORCA TERMINATED NORMALLY****
TOTAL RUN TIME: 0 days 0 hours 12 minutes 2 seconds 316 msec
