
                                 *****************
                                 * O   R   C   A *
                                 *****************

                                            #,                                       
                                            ###                                      
                                            ####                                     
                                            #####                                    
                                            ######                                   
                                           ########,                                 
                                     ,,################,,,,,                         
                               ,,#################################,,                 
                          ,,##########################################,,             
                       ,#########################################, ''#####,          
                    ,#############################################,,   '####,        
                  ,##################################################,,,,####,       
                ,###########''''           ''''###############################       
              ,#####''   ,,,,##########,,,,          '''####'''          '####       
            ,##' ,,,,###########################,,,                        '##       
           ' ,,###''''                  '''############,,,                           
         ,,##''                                '''############,,,,        ,,,,,,###''
      ,#''                                            '''#######################'''  
     '                                                          ''''####''''         
             ,#######,   #######,   ,#######,      ##                                
            ,#'     '#,  ##    ##  ,#'     '#,    #''#        ######   ,####,        
            ##       ##  ##   ,#'  ##            #'  '#       #        #'  '#        
            ##       ##  #######   ##           ,######,      #####,   #    #        
            '#,     ,#'  ##    ##  '#,     ,#' ,#      #,         ##   #,  ,#        
             '#######'   ##     ##  '#######'  #'      '#     #####' # '####'        



                  #######################################################
                  #                        -***-                        #
                  #          Department of theory and spectroscopy      #
                  #    Directorship and core code : Frank Neese         #
                  #        Max Planck Institute fuer Kohlenforschung    #
                  #                Kaiser Wilhelm Platz 1               #
                  #                 D-45470 Muelheim/Ruhr               #
                  #                      Germany                        #
                  #                                                     #
                  #                  All rights reserved                #
                  #                        -***-                        #
                  #######################################################


                         Program Version 5.0.4 -  RELEASE  -


 With contributions from (in alphabetic order):
   Daniel Aravena         : Magnetic Suceptibility
   Michael Atanasov       : Ab Initio Ligand Field Theory (pilot matlab implementation)
   Alexander A. Auer      : GIAO ZORA, VPT2 properties, NMR spectrum
   Ute Becker             : Parallelization
   Giovanni Bistoni       : ED, misc. LED, open-shell LED, HFLD
   Martin Brehm           : Molecular dynamics
   Dmytro Bykov           : SCF Hessian
   Vijay G. Chilkuri      : MRCI spin determinant printing, contributions to CSF-ICE
   Dipayan Datta          : RHF DLPNO-CCSD density
   Achintya Kumar Dutta   : EOM-CC, STEOM-CC
   Dmitry Ganyushin       : Spin-Orbit,Spin-Spin,Magnetic field MRCI
   Miquel Garcia          : C-PCM and meta-GGA Hessian, CC/C-PCM, Gaussian charge scheme
   Yang Guo               : DLPNO-NEVPT2, F12-NEVPT2, CIM, IAO-localization
   Andreas Hansen         : Spin unrestricted coupled pair/coupled cluster methods
   Benjamin Helmich-Paris : MC-RPA, TRAH-SCF, COSX integrals
   Lee Huntington         : MR-EOM, pCC
   Robert Izsak           : Overlap fitted RIJCOSX, COSX-SCS-MP3, EOM
   Marcus Kettner         : VPT2
   Christian Kollmar      : KDIIS, OOCD, Brueckner-CCSD(T), CCSD density, CASPT2, CASPT2-K
   Simone Kossmann        : Meta GGA functionals, TD-DFT gradient, OOMP2, MP2 Hessian
   Martin Krupicka        : Initial AUTO-CI
   Lucas Lang             : DCDCAS
   Marvin Lechner         : AUTO-CI (C++ implementation), FIC-MRCC
   Dagmar Lenk            : GEPOL surface, SMD
   Dimitrios Liakos       : Extrapolation schemes; Compound Job, initial MDCI parallelization
   Dimitrios Manganas     : Further ROCIS development; embedding schemes
   Dimitrios Pantazis     : SARC Basis sets
   Anastasios Papadopoulos: AUTO-CI, single reference methods and gradients
   Taras Petrenko         : DFT Hessian,TD-DFT gradient, ASA, ECA, R-Raman, ABS, FL, XAS/XES, NRVS
   Peter Pinski           : DLPNO-MP2, DLPNO-MP2 Gradient
   Christoph Reimann      : Effective Core Potentials
   Marius Retegan         : Local ZFS, SOC
   Christoph Riplinger    : Optimizer, TS searches, QM/MM, DLPNO-CCSD(T), (RO)-DLPNO pert. Triples
   Tobias Risthaus        : Range-separated hybrids, TD-DFT gradient, RPA, STAB
   Michael Roemelt        : Original ROCIS implementation
   Masaaki Saitow         : Open-shell DLPNO-CCSD energy and density
   Barbara Sandhoefer     : DKH picture change effects
   Avijit Sen             : IP-ROCIS
   Kantharuban Sivalingam : CASSCF convergence, NEVPT2, FIC-MRCI
   Bernardo de Souza      : ESD, SOC TD-DFT
   Georgi Stoychev        : AutoAux, RI-MP2 NMR, DLPNO-MP2 response
   Willem Van den Heuvel  : Paramagnetic NMR
   Boris Wezisla          : Elementary symmetry handling
   Frank Wennmohs         : Technical directorship


 We gratefully acknowledge several colleagues who have allowed us to
 interface, adapt or use parts of their codes:
   Stefan Grimme, W. Hujo, H. Kruse, P. Pracht,  : VdW corrections, initial TS optimization,
                  C. Bannwarth, S. Ehlert          DFT functionals, gCP, sTDA/sTD-DF
   Ed Valeev, F. Pavosevic, A. Kumar             : LibInt (2-el integral package), F12 methods
   Garnet Chan, S. Sharma, J. Yang, R. Olivares  : DMRG
   Ulf Ekstrom                                   : XCFun DFT Library
   Mihaly Kallay                                 : mrcc  (arbitrary order and MRCC methods)
   Jiri Pittner, Ondrej Demel                    : Mk-CCSD
   Frank Weinhold                                : gennbo (NPA and NBO analysis)
   Christopher J. Cramer and Donald G. Truhlar   : smd solvation model
   Lars Goerigk                                  : TD-DFT with DH, B97 family of functionals
   V. Asgeirsson, H. Jonsson                     : NEB implementation
   FAccTs GmbH                                   : IRC, NEB, NEB-TS, DLPNO-Multilevel, CI-OPT
                                                   MM, QMMM, 2- and 3-layer-ONIOM, Crystal-QMMM,
                                                   LR-CPCM, SF, NACMEs, symmetry and pop. for TD-DFT,
                                                   nearIR, NL-DFT gradient (VV10), updates on ESD,
                                                   ML-optimized integration grids
   S Lehtola, MJT Oliveira, MAL Marques          : LibXC Library
   Liviu Ungur et al                             : ANISO software


 Your calculation uses the libint2 library for the computation of 2-el integrals
 For citations please refer to: http://libint.valeyev.net

 Your ORCA version has been built with support for libXC version: 5.1.0
 For citations please refer to: https://tddft.org/programs/libxc/

 This ORCA versions uses:
   CBLAS   interface :  Fast vector & matrix operations
   LAPACKE interface :  Fast linear algebra routines
   SCALAPACK package :  Parallel linear algebra routines
   Shared memory     :  Shared parallel matrices
   BLAS/LAPACK       :  OpenBLAS 0.3.15  USE64BITINT DYNAMIC_ARCH NO_AFFINITY Zen SINGLE_THREADED
        Core in use  :  Zen
   Copyright (c) 2011-2014, The OpenBLAS Project


================================================================================

----- Orbital basis set information -----
Your calculation utilizes the basis: 3-21G
   H-Ne       : J. S. Binkley, J. A. Pople and W. J. Hehre, J. Am. Chem. Soc. 102 939 (1980).
   Na-Ar      : M. S. Gordon, J. S. Binkley, J. A. Pople, W. J. Pietro and W.J. Hehre, J. Am. Chem. Soc. 104, 2797 (1983).
   K-Ca, Ga-Kr: K. D. Dobbs and W. J. Hehre, J. Comput. Chem. 7, 359 (1986).
   Sc-Zn      : K. D. Dobbs and W. J. Hehre, J. Comput. Chem. 8, 861 (1987).
   Y-Cd       : K. D. Dobbs and W. J. Hehre, J. Comput. Chem. 8, 880 (1987).

================================================================================
                                        WARNINGS
                       Please study these warnings very carefully!
================================================================================


WARNING: Geometry Optimization
  ===> : Switching off AutoStart
         For restart on a previous wavefunction, please use MOREAD

INFO   : the flag for use of the SHARK integral package has been found!

================================================================================
                                       INPUT FILE
================================================================================
NAME = Eth_opt_freq.inp
|  1> !hf 3-21G opt freq
|  2> 
|  3> 
|  4> *int 0 1
|  5>    C     0     0     0        0.00000        0.00000        0.00000
|  6>    C     1     0     0        1.33579        0.00000        0.00000
|  7>    H     1     2     0        1.08549      121.05026        0.00000
|  8>    H     1     2     3        1.08549      121.05026      180.00000
|  9>    H     2     1     3        1.08549      121.05026        0.00000
| 10>    H     2     1     3        1.08549      121.05026      180.00000
| 11> **                         ****END OF INPUT****
================================================================================

                       *****************************
                       * Geometry Optimization Run *
                       *****************************

Geometry optimization settings:
Update method            Update   .... BFGS
Choice of coordinates    CoordSys .... Z-matrix Internals
Initial Hessian          InHess   .... Almoef's Model

Convergence Tolerances:
Energy Change            TolE     ....  5.0000e-06 Eh
Max. Gradient            TolMAXG  ....  3.0000e-04 Eh/bohr
RMS Gradient             TolRMSG  ....  1.0000e-04 Eh/bohr
Max. Displacement        TolMAXD  ....  4.0000e-03 bohr
RMS Displacement         TolRMSD  ....  2.0000e-03 bohr
Strict Convergence                ....  False
------------------------------------------------------------------------------
                        ORCA OPTIMIZATION COORDINATE SETUP
------------------------------------------------------------------------------

The optimization will be done in new redundant internal coordinates
Making redundant internal coordinates   ...  (new redundants) done
Evaluating the initial hessian          ...  (Almloef) done
Evaluating the coordinates              ...  done
Calculating the B-matrix                .... done
Calculating the G-matrix                .... done
Diagonalizing the G-matrix              .... done
The first mode is                       ....    3
The number of degrees of freedom        ....   12

    -----------------------------------------------------------------
                    Redundant Internal Coordinates


    -----------------------------------------------------------------
         Definition                    Initial Value    Approx d2E/dq
    -----------------------------------------------------------------
      1. B(C   1,C   0)                  1.3358         0.762478   
      2. B(H   2,C   0)                  1.0855         0.366116   
      3. B(H   3,C   0)                  1.0855         0.366116   
      4. B(H   4,C   1)                  1.0855         0.366116   
      5. B(H   5,C   1)                  1.0855         0.366116   
      6. A(H   2,C   0,H   3)          117.8995         0.292359   
      7. A(C   1,C   0,H   2)          121.0503         0.366598   
      8. A(C   1,C   0,H   3)          121.0503         0.366598   
      9. A(H   4,C   1,H   5)          117.8995         0.292359   
     10. A(C   0,C   1,H   5)          121.0503         0.366598   
     11. A(C   0,C   1,H   4)          121.0503         0.366598   
     12. D(H   4,C   1,C   0,H   3)    180.0000         0.041595   
     13. D(H   5,C   1,C   0,H   2)    180.0000         0.041595   
     14. D(H   5,C   1,C   0,H   3)     -0.0000         0.041595   
     15. D(H   4,C   1,C   0,H   2)      0.0000         0.041595   
    -----------------------------------------------------------------

Number of atoms                         .... 6
Number of degrees of freedom            .... 15

         *************************************************************
         *                GEOMETRY OPTIMIZATION CYCLE   1            *
         *************************************************************
---------------------------------
CARTESIAN COORDINATES (ANGSTROEM)
---------------------------------
  C      0.000000    0.000000    0.000000
  C      1.335790    0.000000    0.000000
  H     -0.559885    0.929956    0.000000
  H     -0.559885   -0.929956   -0.000000
  H      1.895675    0.929956    0.000000
  H      1.895675   -0.929956    0.000000

----------------------------
CARTESIAN COORDINATES (A.U.)
----------------------------
  NO LB      ZA    FRAG     MASS         X           Y           Z
   0 C     6.0000    0    12.011    0.000000    0.000000    0.000000
   1 C     6.0000    0    12.011    2.524277    0.000000    0.000000
   2 H     1.0000    0     1.008   -1.058029    1.757362    0.000000
   3 H     1.0000    0     1.008   -1.058029   -1.757362   -0.000000
   4 H     1.0000    0     1.008    3.582306    1.757362    0.000000
   5 H     1.0000    0     1.008    3.582306   -1.757362    0.000000

--------------------------------
INTERNAL COORDINATES (ANGSTROEM)
--------------------------------
 C      0   0   0     0.000000000000     0.00000000     0.00000000
 C      1   0   0     1.335790000000     0.00000000     0.00000000
 H      1   2   0     1.085490000000   121.05026000     0.00000000
 H      1   2   3     1.085490000000   121.05026000   180.00000000
 H      2   1   3     1.085490000000   121.05026000     0.00000000
 H      2   1   3     1.085490000000   121.05026000   180.00000000

---------------------------
INTERNAL COORDINATES (A.U.)
---------------------------
 C      0   0   0     0.000000000000     0.00000000     0.00000000
 C      1   0   0     2.524277272431     0.00000000     0.00000000
 H      1   2   0     2.051278821110   121.05026000     0.00000000
 H      1   2   3     2.051278821110   121.05026000   180.00000000
 H      2   1   3     2.051278821110   121.05026000     0.00000000
 H      2   1   3     2.051278821110   121.05026000   180.00000000

---------------------
BASIS SET INFORMATION
---------------------
There are 2 groups of distinct atoms

 Group   1 Type C   : 6s3p contracted to 3s2p pattern {321/21}
 Group   2 Type H   : 3s contracted to 2s pattern {21}

Atom   0C    basis set group =>   1
Atom   1C    basis set group =>   1
Atom   2H    basis set group =>   2
Atom   3H    basis set group =>   2
Atom   4H    basis set group =>   2
Atom   5H    basis set group =>   2
------------------------------------------------------------------------------
                           ORCA GTO INTEGRAL CALCULATION
------------------------------------------------------------------------------
------------------------------------------------------------------------------
                   ___                                                        
                  /   \      - P O W E R E D   B Y -                         
                 /     \                                                     
                 |  |  |   _    _      __       _____    __    __             
                 |  |  |  | |  | |    /  \     |  _  \  |  |  /  |          
                  \  \/   | |  | |   /    \    | | | |  |  | /  /          
                 / \  \   | |__| |  /  /\  \   | |_| |  |  |/  /          
                |  |  |   |  __  | /  /__\  \  |    /   |      \           
                |  |  |   | |  | | |   __   |  |    \   |  |\   \          
                \     /   | |  | | |  |  |  |  | |\  \  |  | \   \       
                 \___/    |_|  |_| |__|  |__|  |_| \__\ |__|  \__/        
                                                                              
                      - O R C A' S   B I G   F R I E N D -                    
                                      &                                       
                       - I N T E G R A L  F E E D E R -                       
                                                                              
 v1 FN, 2020, v2 2021                                                         
------------------------------------------------------------------------------


Reading SHARK input file Eth_opt_freq.SHARKINP.tmp ... ok
----------------------
SHARK INTEGRAL PACKAGE
----------------------

Number of atoms                             ...      6
Number of basis functions                   ...     26
Number of shells                            ...     18
Maximum angular momentum                    ...      1
Integral batch strategy                     ... SHARK/LIBINT Hybrid
RI-J (if used) integral strategy            ... SPLIT-RIJ (Revised 2003 algorithm where possible)
Printlevel                                  ...      1
Contraction scheme used                     ... SEGMENTED contraction
Coulomb Range Separation                    ... NOT USED
Exchange Range Separation                   ... NOT USED
Finite Nucleus Model                        ... NOT USED
Auxiliary Coulomb fitting basis             ... NOT available
Auxiliary J/K fitting basis                 ... NOT available
Auxiliary Correlation fitting basis         ... NOT available
Auxiliary 'external' fitting basis          ... NOT available
Integral threshold                          ...     2.500000e-11
Primitive cut-off                           ...     2.500000e-12
Primitive pair pre-selection threshold      ...     2.500000e-12

Calculating pre-screening integrals         ... done (  0.0 sec) Dimension = 18
Organizing shell pair data                  ... done (  0.0 sec)
Shell pair information
Total number of shell pairs                 ...       171
Shell pairs after pre-screening             ...       171
Total number of primitive shell pairs       ...       479
Primitive shell pairs kept                  ...       447
          la=0 lb=0:    105 shell pairs
          la=1 lb=0:     56 shell pairs
          la=1 lb=1:     10 shell pairs

Calculating one electron integrals          ... done (  0.0 sec)
Calculating Nuclear repulsion               ... done (  0.0 sec) ENN=     33.319961165285 Eh

SHARK setup successfully completed in   0.2 seconds

Maximum memory used throughout the entire GTOINT-calculation: 4.0 MB
-------------------------------------------------------------------------------
                                 ORCA SCF
-------------------------------------------------------------------------------

------------
SCF SETTINGS
------------
Hamiltonian:
 Ab initio Hamiltonian  Method          .... Hartree-Fock(GTOs)


General Settings:
 Integral files         IntName         .... Eth_opt_freq
 Hartree-Fock type      HFTyp           .... RHF
 Total Charge           Charge          ....    0
 Multiplicity           Mult            ....    1
 Number of Electrons    NEL             ....   16
 Basis Dimension        Dim             ....   26
 Nuclear Repulsion      ENuc            ....     33.3199611653 Eh

Convergence Acceleration:
 DIIS                   CNVDIIS         .... on
   Start iteration      DIISMaxIt       ....    12
   Startup error        DIISStart       ....  0.200000
   # of expansion vecs  DIISMaxEq       ....     5
   Bias factor          DIISBfac        ....   1.050
   Max. coefficient     DIISMaxC        ....  10.000
 Trust-Rad. Augm. Hess. CNVTRAH         .... auto
   Auto Start mean grad. ratio tolernc. ....  1.125000
   Auto Start start iteration           ....    20
   Auto Start num. interpolation iter.  ....    10
   Max. Number of Micro iterations      ....    16
   Max. Number of Macro iterations      .... Maxiter - #DIIS iter
   Number of Davidson start vectors     ....     2
   Converg. threshold I  (grad. norm)   ....   1.000e-05
   Converg. threshold II (energy diff.) ....   1.000e-08
   Grad. Scal. Fac. for Micro threshold ....   0.100
   Minimum threshold for Micro iter.    ....   0.010
   NR start threshold (gradient norm)   ....   0.001
   Initial trust radius                 ....   0.400
   Minimum AH scaling param. (alpha)    ....   1.000
   Maximum AH scaling param. (alpha)    .... 1000.000
   Orbital update algorithm             .... Taylor
   White noise on init. David. guess    .... on
   Maximum white noise                  ....   0.010
   Quad. conv. algorithm                .... NR
 SOSCF                  CNVSOSCF        .... on
   Start iteration      SOSCFMaxIt      ....   150
   Startup grad/error   SOSCFStart      ....  0.003300
 Level Shifting         CNVShift        .... on
   Level shift para.    LevelShift      ....    0.2500
   Turn off err/grad.   ShiftErr        ....    0.0010
 Zerner damping         CNVZerner       .... off
 Static damping         CNVDamp         .... on
   Fraction old density DampFac         ....    0.7000
   Max. Damping (<1)    DampMax         ....    0.9800
   Min. Damping (>=0)   DampMin         ....    0.0000
   Turn off err/grad.   DampErr         ....    0.1000
 Fernandez-Rico         CNVRico         .... off

SCF Procedure:
 Maximum # iterations   MaxIter         ....   125
 SCF integral mode      SCFMode         .... Direct
   Integral package                     .... SHARK and LIBINT hybrid scheme
 Reset frequency        DirectResetFreq ....    20
 Integral Threshold     Thresh          ....  2.500e-11 Eh
 Primitive CutOff       TCut            ....  2.500e-12 Eh

Convergence Tolerance:
 Convergence Check Mode ConvCheckMode   .... Total+1el-Energy
 Convergence forced     ConvForced      .... 0
 Energy Change          TolE            ....  1.000e-08 Eh
 1-El. energy change                    ....  1.000e-05 Eh
 Orbital Gradient       TolG            ....  1.000e-05
 Orbital Rotation angle TolX            ....  1.000e-05
 DIIS Error             TolErr          ....  5.000e-07


Diagonalization of the overlap matrix:
Smallest eigenvalue                        ... 1.620e-02
Time for diagonalization                   ...    0.030 sec
Threshold for overlap eigenvalues          ... 1.000e-08
Number of eigenvalues below threshold      ... 0
Time for construction of square roots      ...    0.002 sec
Total time needed                          ...    0.032 sec

Time for model grid setup =    0.084 sec

------------------------------
INITIAL GUESS: MODEL POTENTIAL
------------------------------
Loading Hartree-Fock densities                     ... done
Calculating cut-offs                               ... done
Initializing the effective Hamiltonian             ... done
Setting up the integral package (SHARK)            ... done
Starting the Coulomb interaction                   ... done (   0.0 sec)
Reading the grid                                   ... done
Mapping shells                                     ... done
Starting the XC term evaluation                    ... done (   0.0 sec)
Transforming the Hamiltonian                       ... done (   0.0 sec)
Diagonalizing the Hamiltonian                      ... done (   0.0 sec)
Back transforming the eigenvectors                 ... done (   0.0 sec)
Now organizing SCF variables                       ... done
                      ------------------
                      INITIAL GUESS DONE (   0.1 sec)
                      ------------------
--------------
SCF ITERATIONS
--------------
ITER       Energy         Delta-E        Max-DP      RMS-DP      [F,P]     Damp
               ***  Starting incremental Fock matrix formation  ***
  0    -77.5103122445   0.000000000000 0.03516171  0.00483198  0.1833978 0.7000
  1    -77.5416375385  -0.031325294037 0.02686768  0.00398231  0.1226911 0.7000
                               ***Turning on DIIS***
  2    -77.5610695358  -0.019431997279 0.06307115  0.00884335  0.0760679 0.0000
  3    -77.4752470523   0.085822483454 0.01193402  0.00183437  0.0222012 0.0000
                      *** Initiating the SOSCF procedure ***
                           *** Shutting down DIIS ***
                      *** Re-Reading the Fockian *** 
                      *** Removing any level shift *** 
ITER      Energy       Delta-E        Grad      Rot      Max-DP    RMS-DP
  4    -77.58768558  -0.1124385234  0.002391  0.002391  0.003262  0.000382
               *** Restarting incremental Fock matrix formation ***
  5    -77.59990446  -0.0122188888  0.000637  0.000436  0.001623  0.000161
  6    -77.59990657  -0.0000021066  0.000179  0.000227  0.000576  0.000055
  7    -77.59990676  -0.0000001862  0.000032  0.000022  0.000046  0.000005
  8    -77.59990676  -0.0000000040  0.000003  0.000003  0.000008  0.000001
                 **** Energy Check signals convergence ****
              ***Rediagonalizing the Fockian in SOSCF/NRSCF***

               *****************************************************
               *                     SUCCESS                       *
               *           SCF CONVERGED AFTER   9 CYCLES          *
               *****************************************************


----------------
TOTAL SCF ENERGY
----------------

Total Energy       :          -77.59990676 Eh           -2111.60081 eV

Components:
Nuclear Repulsion  :           33.31996117 Eh             906.68224 eV
Electronic Energy  :         -110.91986793 Eh           -3018.28305 eV
One Electron Energy:         -169.32079450 Eh           -4607.45306 eV
Two Electron Energy:           58.40092657 Eh            1589.17000 eV

Virial components:
Potential Energy   :         -154.89400646 Eh           -4214.88020 eV
Kinetic Energy     :           77.29409970 Eh            2103.27938 eV
Virial Ratio       :            2.00395641


---------------
SCF CONVERGENCE
---------------

  Last Energy change         ...   -1.5092e-11  Tolerance :   1.0000e-08
  Last MAX-Density change    ...    1.8368e-06  Tolerance :   1.0000e-07
  Last RMS-Density change    ...    2.4067e-07  Tolerance :   5.0000e-09
  Last Orbital Gradient      ...    7.3782e-07  Tolerance :   1.0000e-05
  Last Orbital Rotation      ...    1.0667e-06  Tolerance :   1.0000e-05

             **** THE GBW FILE WAS UPDATED (Eth_opt_freq.gbw) ****
             **** DENSITY Eth_opt_freq.scfp WAS UPDATED ****
             **** ENERGY FILE WAS UPDATED (Eth_opt_freq.en.tmp) ****
             **** THE GBW FILE WAS UPDATED (Eth_opt_freq.gbw) ****
             **** DENSITY Eth_opt_freq.scfp WAS UPDATED ****
----------------
ORBITAL ENERGIES
----------------

  NO   OCC          E(Eh)            E(eV) 
   0   2.0000     -11.171904      -304.0030 
   1   2.0000     -11.171888      -304.0025 
   2   2.0000      -1.030911       -28.0525 
   3   2.0000      -0.784095       -21.3363 
   4   2.0000      -0.643551       -17.5119 
   5   2.0000      -0.581398       -15.8207 
   6   2.0000      -0.500660       -13.6237 
   7   2.0000      -0.375061       -10.2059 
   8   0.0000       0.181577         4.9410 
   9   0.0000       0.292897         7.9701 
  10   0.0000       0.310974         8.4620 
  11   0.0000       0.338513         9.2114 
  12   0.0000       0.435234        11.8433 
  13   0.0000       0.535260        14.5652 
  14   0.0000       0.880662        23.9640 
  15   0.0000       0.934802        25.4373 
  16   0.0000       0.993009        27.0211 
  17   0.0000       1.076314        29.2880 
  18   0.0000       1.101951        29.9856 
  19   0.0000       1.120965        30.5030 
  20   0.0000       1.314351        35.7653 
  21   0.0000       1.350131        36.7389 
  22   0.0000       1.390505        37.8376 
  23   0.0000       1.655915        45.0597 
  24   0.0000       1.656954        45.0880 
  25   0.0000       1.964622        53.4601 

                    ********************************
                    * MULLIKEN POPULATION ANALYSIS *
                    ********************************

-----------------------
MULLIKEN ATOMIC CHARGES
-----------------------
   0 C :   -0.424838
   1 C :   -0.424838
   2 H :    0.212419
   3 H :    0.212419
   4 H :    0.212419
   5 H :    0.212419
Sum of atomic charges:    0.0000000

--------------------------------
MULLIKEN REDUCED ORBITAL CHARGES
--------------------------------
  0 C s       :     3.351752  s :     3.351752
      pz      :     1.000000  p :     3.073086
      px      :     0.954932
      py      :     1.118154
  1 C s       :     3.351752  s :     3.351752
      pz      :     1.000000  p :     3.073086
      px      :     0.954932
      py      :     1.118154
  2 H s       :     0.787581  s :     0.787581
  3 H s       :     0.787581  s :     0.787581
  4 H s       :     0.787581  s :     0.787581
  5 H s       :     0.787581  s :     0.787581


                     *******************************
                     * LOEWDIN POPULATION ANALYSIS *
                     *******************************

----------------------
LOEWDIN ATOMIC CHARGES
----------------------
   0 C :   -0.192769
   1 C :   -0.192769
   2 H :    0.096384
   3 H :    0.096384
   4 H :    0.096384
   5 H :    0.096384

-------------------------------
LOEWDIN REDUCED ORBITAL CHARGES
-------------------------------
  0 C s       :     2.982942  s :     2.982942
      pz      :     1.000000  p :     3.209827
      px      :     1.108073
      py      :     1.101754
  1 C s       :     2.982942  s :     2.982942
      pz      :     1.000000  p :     3.209827
      px      :     1.108073
      py      :     1.101754
  2 H s       :     0.903616  s :     0.903616
  3 H s       :     0.903616  s :     0.903616
  4 H s       :     0.903616  s :     0.903616
  5 H s       :     0.903616  s :     0.903616


                      *****************************
                      * MAYER POPULATION ANALYSIS *
                      *****************************

  NA   - Mulliken gross atomic population
  ZA   - Total nuclear charge
  QA   - Mulliken gross atomic charge
  VA   - Mayer's total valence
  BVA  - Mayer's bonded valence
  FA   - Mayer's free valence

  ATOM       NA         ZA         QA         VA         BVA        FA
  0 C      6.4248     6.0000    -0.4248     3.7628     3.7628     0.0000
  1 C      6.4248     6.0000    -0.4248     3.7628     3.7628     0.0000
  2 H      0.7876     1.0000     0.2124     0.9247     0.9247     0.0000
  3 H      0.7876     1.0000     0.2124     0.9247     0.9247     0.0000
  4 H      0.7876     1.0000     0.2124     0.9247     0.9247    -0.0000
  5 H      0.7876     1.0000     0.2124     0.9247     0.9247     0.0000

  Mayer bond orders larger than 0.100000
B(  0-C ,  1-C ) :   1.9185 B(  0-C ,  2-H ) :   0.9407 B(  0-C ,  3-H ) :   0.9407 
B(  1-C ,  4-H ) :   0.9407 B(  1-C ,  5-H ) :   0.9407 

-------
TIMINGS
-------

Total SCF time: 0 days 0 hours 0 min 0 sec 

Total time                  ....       0.372 sec
Sum of individual times     ....       0.193 sec  ( 51.9%)

Fock matrix formation       ....       0.045 sec  ( 12.2%)
Diagonalization             ....       0.001 sec  (  0.2%)
Density matrix formation    ....       0.000 sec  (  0.0%)
Population analysis         ....       0.001 sec  (  0.3%)
Initial guess               ....       0.061 sec  ( 16.3%)
Orbital Transformation      ....       0.000 sec  (  0.0%)
Orbital Orthonormalization  ....       0.000 sec  (  0.0%)
DIIS solution               ....       0.000 sec  (  0.1%)
SOSCF solution              ....       0.001 sec  (  0.1%)

Maximum memory used throughout the entire SCF-calculation: 223.9 MB

-------------------------   --------------------
FINAL SINGLE POINT ENERGY       -77.599906761302
-------------------------   --------------------

------------------------------------------------------------------------------
                         ORCA SCF GRADIENT CALCULATION
------------------------------------------------------------------------------

Gradient of the Hartree-Fock SCF energy:
Hartree-Fock type                ... RHF
Number of operators              ...    1
Number of atoms                  ...    6
Basis set dimensions             ...   26
Integral neglect threshold       ... 2.5e-11
Integral primitive cutoff        ... 2.5e-12
SHARK Integral package           ... ON

Nuc. rep. gradient       (SHARK) ... done (  0.0 sec)
HCore & Overlap gradient (SHARK) ... done (  0.0 sec)
Two-Electron gradient    (SHARK) ... done (  0.2 sec)

------------------
CARTESIAN GRADIENT
------------------

   1   C   :   -0.020446057   -0.000000000    0.000000000
   2   C   :    0.020446057   -0.000000000   -0.000000000
   3   H   :   -0.002741009    0.009070463   -0.000000000
   4   H   :   -0.002741009   -0.009070463    0.000000000
   5   H   :    0.002741009    0.009070463   -0.000000000
   6   H   :    0.002741009   -0.009070463    0.000000000

Difference to translation invariance:
           :    0.0000000000    0.0000000000    0.0000000000

Difference to rotation invariance:
           :   -0.0000000000    0.0000000000   -0.0000000000

Norm of the cartesian gradient     ...    0.0345720718
RMS gradient                       ...    0.0081487155
MAX gradient                       ...    0.0204460566

-------
TIMINGS
-------

Total SCF gradient time            ...        0.279 sec

One electron gradient       ....       0.010 sec  (  3.5%)
Two electron gradient       ....       0.230 sec  ( 82.5%)

Maximum memory used throughout the entire SCFGRAD-calculation: 6.6 MB
------------------------------------------------------------------------------
                         ORCA GEOMETRY RELAXATION STEP
------------------------------------------------------------------------------

Reading the OPT-File                    .... done
Getting information on internals        .... done
Copying old internal coords+grads       .... done
Making the new internal coordinates     .... (new redundants).... done
Validating the new internal coordinates .... (new redundants).... done
Calculating the B-matrix                .... done
Calculating the G,G- and P matrices     .... done
Transforming gradient to internals      .... done
Projecting the internal gradient        .... done
Number of atoms                         ....   6
Number of internal coordinates          ....  15
Current Energy                          ....   -77.599906761 Eh
Current gradient norm                   ....     0.034572072 Eh/bohr
Maximum allowed component of the step   ....  0.300
Current trust radius                    ....  0.300
Evaluating the initial hessian          ....  (Almloef) done
Projecting the Hessian                  .... done
Forming the augmented Hessian           .... done
Diagonalizing the augmented Hessian     .... done
Last element of RFO vector              ....  0.998035051
Lowest eigenvalues of augmented Hessian:
 -0.001891899  0.041595206  0.041595206  0.041595206  0.317105154
Length of the computed step             ....  0.062781465
The final length of the internal step   ....  0.062781465
Converting the step to cartesian space:
 Initial RMS(Int)=    0.0162101045
Transforming coordinates:
 Iter   0:  RMS(Cart)=    0.0169853232 RMS(Int)=    1.6223925000
 Iter   1:  RMS(Cart)=    0.0000606862 RMS(Int)=    0.0000572670
 Iter   2:  RMS(Cart)=    0.0000007325 RMS(Int)=    0.0000007071
 Iter   3:  RMS(Cart)=    0.0000000075 RMS(Int)=    0.0000000073
done
Storing new coordinates                 .... done

                                .--------------------.
          ----------------------|Geometry convergence|-------------------------
          Item                value                   Tolerance       Converged
          ---------------------------------------------------------------------
          RMS gradient        0.0083272822            0.0001000000      NO
          MAX gradient        0.0259280742            0.0003000000      NO
          RMS step            0.0162101045            0.0020000000      NO
          MAX step            0.0339208600            0.0040000000      NO
          ........................................................
          Max(Bonds)      0.0180      Max(Angles)    0.57
          Max(Dihed)        0.00      Max(Improp)    0.00
          ---------------------------------------------------------------------

The optimization has not yet converged - more geometry cycles are needed


    ---------------------------------------------------------------------------
                         Redundant Internal Coordinates
                            (Angstroem and degrees)

        Definition                    Value    dE/dq     Step     New-Value
    ----------------------------------------------------------------------------
     1. B(C   1,C   0)                1.3358  0.025928 -0.0180    1.3178   
     2. B(H   2,C   0)                1.0855  0.009185 -0.0132    1.0723   
     3. B(H   3,C   0)                1.0855  0.009185 -0.0132    1.0723   
     4. B(H   4,C   1)                1.0855  0.009185 -0.0132    1.0723   
     5. B(H   5,C   1)                1.0855  0.009185 -0.0132    1.0723   
     6. A(H   2,C   0,H   3)          117.90  0.003187   -0.57    117.33   
     7. A(C   1,C   0,H   2)          121.05 -0.001593    0.29    121.34   
     8. A(C   1,C   0,H   3)          121.05 -0.001593    0.29    121.34   
     9. A(H   4,C   1,H   5)          117.90  0.003187   -0.57    117.33   
    10. A(C   0,C   1,H   5)          121.05 -0.001593    0.29    121.34   
    11. A(C   0,C   1,H   4)          121.05 -0.001593    0.29    121.34   
    12. D(H   4,C   1,C   0,H   3)    180.00  0.000000    0.00    180.00   
    13. D(H   5,C   1,C   0,H   2)    180.00  0.000000   -0.00    180.00   
    14. D(H   5,C   1,C   0,H   3)     -0.00 -0.000000    0.00      0.00   
    15. D(H   4,C   1,C   0,H   2)      0.00  0.000000   -0.00     -0.00   
    ----------------------------------------------------------------------------

         *************************************************************
         *                GEOMETRY OPTIMIZATION CYCLE   2            *
         *************************************************************
---------------------------------
CARTESIAN COORDINATES (ANGSTROEM)
---------------------------------
  C      0.008975    0.000000   -0.000000
  C      1.326815    0.000000   -0.000000
  H     -0.548679    0.915867    0.000000
  H     -0.548679   -0.915867    0.000000
  H      1.884469    0.915867    0.000000
  H      1.884469   -0.915867    0.000000

----------------------------
CARTESIAN COORDINATES (A.U.)
----------------------------
  NO LB      ZA    FRAG     MASS         X           Y           Z
   0 C     6.0000    0    12.011    0.016960    0.000000   -0.000000
   1 C     6.0000    0    12.011    2.507317    0.000000   -0.000000
   2 H     1.0000    0     1.008   -1.036853    1.730738    0.000000
   3 H     1.0000    0     1.008   -1.036853   -1.730738    0.000000
   4 H     1.0000    0     1.008    3.561130    1.730738    0.000000
   5 H     1.0000    0     1.008    3.561130   -1.730738    0.000000

--------------------------------
INTERNAL COORDINATES (ANGSTROEM)
--------------------------------
 C      0   0   0     0.000000000000     0.00000000     0.00000000
 C      1   0   0     1.317839854028     0.00000000     0.00000000
 H      1   2   0     1.072283011252   121.33643414     0.00000000
 H      1   2   3     1.072283011252   121.33643414   180.00000085
 H      2   1   3     1.072283011253   121.33643414     0.00000000
 H      2   1   3     1.072283011253   121.33643414   180.00000000

---------------------------
INTERNAL COORDINATES (A.U.)
---------------------------
 C      0   0   0     0.000000000000     0.00000000     0.00000000
 C      1   0   0     2.490356412479     0.00000000     0.00000000
 H      1   2   0     2.026321229323   121.33643414     0.00000000
 H      1   2   3     2.026321229324   121.33643414   180.00000085
 H      2   1   3     2.026321229324   121.33643414     0.00000000
 H      2   1   3     2.026321229324   121.33643414   180.00000000

------------------------------------------------------------------------------
                   ___                                                        
                  /   \      - P O W E R E D   B Y -                         
                 /     \                                                     
                 |  |  |   _    _      __       _____    __    __             
                 |  |  |  | |  | |    /  \     |  _  \  |  |  /  |          
                  \  \/   | |  | |   /    \    | | | |  |  | /  /          
                 / \  \   | |__| |  /  /\  \   | |_| |  |  |/  /          
                |  |  |   |  __  | /  /__\  \  |    /   |      \           
                |  |  |   | |  | | |   __   |  |    \   |  |\   \          
                \     /   | |  | | |  |  |  |  | |\  \  |  | \   \       
                 \___/    |_|  |_| |__|  |__|  |_| \__\ |__|  \__/        
                                                                              
                      - O R C A' S   B I G   F R I E N D -                    
                                      &                                       
                       - I N T E G R A L  F E E D E R -                       
                                                                              
 v1 FN, 2020, v2 2021                                                         
------------------------------------------------------------------------------


Reading SHARK input file Eth_opt_freq.SHARKINP.tmp ... ok
----------------------
SHARK INTEGRAL PACKAGE
----------------------

Number of atoms                             ...      6
Number of basis functions                   ...     26
Number of shells                            ...     18
Maximum angular momentum                    ...      1
Integral batch strategy                     ... SHARK/LIBINT Hybrid
RI-J (if used) integral strategy            ... SPLIT-RIJ (Revised 2003 algorithm where possible)
Printlevel                                  ...      1
Contraction scheme used                     ... SEGMENTED contraction
Coulomb Range Separation                    ... NOT USED
Exchange Range Separation                   ... NOT USED
Finite Nucleus Model                        ... NOT USED
Auxiliary Coulomb fitting basis             ... NOT available
Auxiliary J/K fitting basis                 ... NOT available
Auxiliary Correlation fitting basis         ... NOT available
Auxiliary 'external' fitting basis          ... NOT available
Integral threshold                          ...     2.500000e-11
Primitive cut-off                           ...     2.500000e-12
Primitive pair pre-selection threshold      ...     2.500000e-12

Calculating pre-screening integrals         ... done (  0.0 sec) Dimension = 18
Organizing shell pair data                  ... done (  0.0 sec)
Shell pair information
Total number of shell pairs                 ...       171
Shell pairs after pre-screening             ...       171
Total number of primitive shell pairs       ...       479
Primitive shell pairs kept                  ...       447
          la=0 lb=0:    105 shell pairs
          la=1 lb=0:     56 shell pairs
          la=1 lb=1:     10 shell pairs

Calculating one electron integrals          ... done (  0.0 sec)
Calculating Nuclear repulsion               ... done (  0.0 sec) ENN=     33.745061908117 Eh

SHARK setup successfully completed in   0.1 seconds

Maximum memory used throughout the entire GTOINT-calculation: 4.0 MB

Diagonalization of the overlap matrix:
Smallest eigenvalue                        ... 1.519e-02
Time for diagonalization                   ...    0.000 sec
Threshold for overlap eigenvalues          ... 1.000e-08
Number of eigenvalues below threshold      ... 0
Time for construction of square roots      ...    0.000 sec
Total time needed                          ...    0.000 sec

--------------
SCF ITERATIONS
--------------
ITER       Energy         Delta-E        Max-DP      RMS-DP      [F,P]     Damp
               ***  Starting incremental Fock matrix formation  ***
  0    -77.6006492107   0.000000000000 0.00144542  0.00022437  0.0088207 0.7000
                      *** Initiating the SOSCF procedure ***
                      *** Re-Reading the Fockian *** 
                      *** Removing any level shift *** 
ITER      Energy       Delta-E        Grad      Rot      Max-DP    RMS-DP
  1    -77.60072674  -0.0000775264  0.000933  0.000933  0.003897  0.000610
               *** Restarting incremental Fock matrix formation ***
  2    -77.60089433  -0.0001675965  0.001069  0.000725  0.001491  0.000170
  3    -77.60090174  -0.0000074094  0.000415  0.000228  0.000306  0.000039
  4    -77.60090243  -0.0000006837  0.000048  0.000035  0.000050  0.000006
  5    -77.60090243  -0.0000000073  0.000005  0.000005  0.000012  0.000001
                 **** Energy Check signals convergence ****
              ***Rediagonalizing the Fockian in SOSCF/NRSCF***

               *****************************************************
               *                     SUCCESS                       *
               *           SCF CONVERGED AFTER   6 CYCLES          *
               *****************************************************

Total Energy       :          -77.60090243 Eh           -2111.62791 eV
  Last Energy change         ...   -1.7631e-10  Tolerance :   1.0000e-08
  Last MAX-Density change    ...    1.3091e-06  Tolerance :   1.0000e-07
             **** THE GBW FILE WAS UPDATED (Eth_opt_freq.gbw) ****
             **** DENSITY Eth_opt_freq.scfp WAS UPDATED ****
             **** ENERGY FILE WAS UPDATED (Eth_opt_freq.en.tmp) ****
             **** THE GBW FILE WAS UPDATED (Eth_opt_freq.gbw) ****
             **** DENSITY Eth_opt_freq.scfp WAS UPDATED ****
Total SCF time: 0 days 0 hours 0 min 0 sec 

Maximum memory used throughout the entire SCF-calculation: 223.8 MB

-------------------------   --------------------
FINAL SINGLE POINT ENERGY       -77.600902434198
-------------------------   --------------------

------------------------------------------------------------------------------
                         ORCA SCF GRADIENT CALCULATION
------------------------------------------------------------------------------

Gradient of the Hartree-Fock SCF energy:
Hartree-Fock type                ... RHF
Number of operators              ...    1
Number of atoms                  ...    6
Basis set dimensions             ...   26
Integral neglect threshold       ... 2.5e-11
Integral primitive cutoff        ... 2.5e-12
SHARK Integral package           ... ON

Nuc. rep. gradient       (SHARK) ... done (  0.0 sec)
HCore & Overlap gradient (SHARK) ... done (  0.0 sec)
Two-Electron gradient    (SHARK) ... done (  0.0 sec)

------------------
CARTESIAN GRADIENT
------------------

   1   C   :   -0.006397969    0.000000000   -0.000000000
   2   C   :    0.006397969    0.000000000   -0.000000000
   3   H   :    0.002016134    0.000261614    0.000000000
   4   H   :    0.002016134   -0.000261614    0.000000000
   5   H   :   -0.002016134    0.000261614    0.000000000
   6   H   :   -0.002016134   -0.000261614    0.000000000

Difference to translation invariance:
           :    0.0000000000    0.0000000000    0.0000000000

Difference to rotation invariance:
           :   -0.0000000000    0.0000000000    0.0000000000

Norm of the cartesian gradient     ...    0.0099197265
RMS gradient                       ...    0.0023381020
MAX gradient                       ...    0.0063979695

-------
TIMINGS
-------

Total SCF gradient time            ...        0.056 sec

One electron gradient       ....       0.003 sec  (  4.6%)
Two electron gradient       ....       0.022 sec  ( 39.2%)

Maximum memory used throughout the entire SCFGRAD-calculation: 6.6 MB
------------------------------------------------------------------------------
                         ORCA GEOMETRY RELAXATION STEP
------------------------------------------------------------------------------

Reading the OPT-File                    .... done
Getting information on internals        .... done
Copying old internal coords+grads       .... done
Making the new internal coordinates     .... (new redundants).... done
Validating the new internal coordinates .... (new redundants).... done
Calculating the B-matrix                .... done
Calculating the G,G- and P matrices     .... done
Transforming gradient to internals      .... done
Projecting the internal gradient        .... done
Number of atoms                         ....   6
Number of internal coordinates          ....  15
Current Energy                          ....   -77.600902434 Eh
Current gradient norm                   ....     0.009919727 Eh/bohr
Maximum allowed component of the step   ....  0.300
Current trust radius                    ....  0.300
Updating the Hessian (BFGS)             .... done
Forming the augmented Hessian           .... done
Diagonalizing the augmented Hessian     .... done
Last element of RFO vector              ....  0.999873940
Lowest eigenvalues of augmented Hessian:
 -0.000080337  0.041595206  0.041595206  0.041595206  0.281561700
Length of the computed step             ....  0.015879766
The final length of the internal step   ....  0.015879766
Converting the step to cartesian space:
 Initial RMS(Int)=    0.0041001379
Transforming coordinates:
 Iter   0:  RMS(Cart)=    0.0032887088 RMS(Int)=    2.2942985461
 Iter   1:  RMS(Cart)=    0.0000093113 RMS(Int)=    0.0000100778
 Iter   2:  RMS(Cart)=    0.0000000385 RMS(Int)=    0.0000000366
done
Storing new coordinates                 .... done

                                .--------------------.
          ----------------------|Geometry convergence|-------------------------
          Item                value                   Tolerance       Converged
          ---------------------------------------------------------------------
          Energy change      -0.0009956729            0.0000050000      NO
          RMS gradient        0.0013471127            0.0001000000      NO
          MAX gradient        0.0025100616            0.0003000000      NO
          RMS step            0.0041001379            0.0020000000      NO
          MAX step            0.0086380610            0.0040000000      NO
          ........................................................
          Max(Bonds)      0.0024      Max(Angles)    0.49
          Max(Dihed)        0.00      Max(Improp)    0.00
          ---------------------------------------------------------------------

The optimization has not yet converged - more geometry cycles are needed


    ---------------------------------------------------------------------------
                         Redundant Internal Coordinates
                            (Angstroem and degrees)

        Definition                    Value    dE/dq     Step     New-Value
    ----------------------------------------------------------------------------
     1. B(C   1,C   0)                1.3178  0.002366 -0.0024    1.3154   
     2. B(H   2,C   0)                1.0723 -0.000825  0.0007    1.0730   
     3. B(H   3,C   0)                1.0723 -0.000825  0.0007    1.0730   
     4. B(H   4,C   1)                1.0723 -0.000825  0.0007    1.0730   
     5. B(H   5,C   1)                1.0723 -0.000825  0.0007    1.0730   
     6. A(H   2,C   0,H   3)          117.33  0.002510   -0.49    116.83   
     7. A(C   1,C   0,H   2)          121.34 -0.001255    0.25    121.58   
     8. A(C   1,C   0,H   3)          121.34 -0.001255    0.25    121.58   
     9. A(H   4,C   1,H   5)          117.33  0.002510   -0.49    116.83   
    10. A(C   0,C   1,H   5)          121.34 -0.001255    0.25    121.58   
    11. A(C   0,C   1,H   4)          121.34 -0.001255    0.25    121.58   
    12. D(H   4,C   1,C   0,H   3)   -180.00  0.000000   -0.00   -180.00   
    13. D(H   5,C   1,C   0,H   2)    180.00 -0.000000    0.00    180.00   
    14. D(H   5,C   1,C   0,H   3)      0.00  0.000000   -0.00     -0.00   
    15. D(H   4,C   1,C   0,H   2)     -0.00 -0.000000    0.00      0.00   
    ----------------------------------------------------------------------------

         *************************************************************
         *                GEOMETRY OPTIMIZATION CYCLE   3            *
         *************************************************************
---------------------------------
CARTESIAN COORDINATES (ANGSTROEM)
---------------------------------
  C      0.010195    0.000000    0.000000
  C      1.325595    0.000000    0.000000
  H     -0.551777    0.914048   -0.000000
  H     -0.551777   -0.914048   -0.000000
  H      1.887567    0.914048   -0.000000
  H      1.887567   -0.914048   -0.000000

----------------------------
CARTESIAN COORDINATES (A.U.)
----------------------------
  NO LB      ZA    FRAG     MASS         X           Y           Z
   0 C     6.0000    0    12.011    0.019267    0.000000    0.000000
   1 C     6.0000    0    12.011    2.505011    0.000000    0.000000
   2 H     1.0000    0     1.008   -1.042707    1.727301   -0.000000
   3 H     1.0000    0     1.008   -1.042707   -1.727301   -0.000000
   4 H     1.0000    0     1.008    3.566984    1.727301   -0.000000
   5 H     1.0000    0     1.008    3.566984   -1.727301   -0.000000

--------------------------------
INTERNAL COORDINATES (ANGSTROEM)
--------------------------------
 C      0   0   0     0.000000000000     0.00000000     0.00000000
 C      1   0   0     1.315399051307     0.00000000     0.00000000
 H      1   2   0     1.072985242629   121.58389636     0.00000000
 H      1   2   3     1.072985242629   121.58389636   180.00000000
 H      2   1   3     1.072985242629   121.58389636     0.00000000
 H      2   1   3     1.072985242629   121.58389636   180.00000085

---------------------------
INTERNAL COORDINATES (A.U.)
---------------------------
 C      0   0   0     0.000000000000     0.00000000     0.00000000
 C      1   0   0     2.485743963790     0.00000000     0.00000000
 H      1   2   0     2.027648254308   121.58389636     0.00000000
 H      1   2   3     2.027648254308   121.58389636   180.00000000
 H      2   1   3     2.027648254308   121.58389636     0.00000000
 H      2   1   3     2.027648254308   121.58389636   180.00000085

------------------------------------------------------------------------------
                   ___                                                        
                  /   \      - P O W E R E D   B Y -                         
                 /     \                                                     
                 |  |  |   _    _      __       _____    __    __             
                 |  |  |  | |  | |    /  \     |  _  \  |  |  /  |          
                  \  \/   | |  | |   /    \    | | | |  |  | /  /          
                 / \  \   | |__| |  /  /\  \   | |_| |  |  |/  /          
                |  |  |   |  __  | /  /__\  \  |    /   |      \           
                |  |  |   | |  | | |   __   |  |    \   |  |\   \          
                \     /   | |  | | |  |  |  |  | |\  \  |  | \   \       
                 \___/    |_|  |_| |__|  |__|  |_| \__\ |__|  \__/        
                                                                              
                      - O R C A' S   B I G   F R I E N D -                    
                                      &                                       
                       - I N T E G R A L  F E E D E R -                       
                                                                              
 v1 FN, 2020, v2 2021                                                         
------------------------------------------------------------------------------


Reading SHARK input file Eth_opt_freq.SHARKINP.tmp ... ok
----------------------
SHARK INTEGRAL PACKAGE
----------------------

Number of atoms                             ...      6
Number of basis functions                   ...     26
Number of shells                            ...     18
Maximum angular momentum                    ...      1
Integral batch strategy                     ... SHARK/LIBINT Hybrid
RI-J (if used) integral strategy            ... SPLIT-RIJ (Revised 2003 algorithm where possible)
Printlevel                                  ...      1
Contraction scheme used                     ... SEGMENTED contraction
Coulomb Range Separation                    ... NOT USED
Exchange Range Separation                   ... NOT USED
Finite Nucleus Model                        ... NOT USED
Auxiliary Coulomb fitting basis             ... NOT available
Auxiliary J/K fitting basis                 ... NOT available
Auxiliary Correlation fitting basis         ... NOT available
Auxiliary 'external' fitting basis          ... NOT available
Integral threshold                          ...     2.500000e-11
Primitive cut-off                           ...     2.500000e-12
Primitive pair pre-selection threshold      ...     2.500000e-12

Calculating pre-screening integrals         ... done (  0.0 sec) Dimension = 18
Organizing shell pair data                  ... done (  0.0 sec)
Shell pair information
Total number of shell pairs                 ...       171
Shell pairs after pre-screening             ...       171
Total number of primitive shell pairs       ...       479
Primitive shell pairs kept                  ...       447
          la=0 lb=0:    105 shell pairs
          la=1 lb=0:     56 shell pairs
          la=1 lb=1:     10 shell pairs

Calculating one electron integrals          ... done (  0.0 sec)
Calculating Nuclear repulsion               ... done (  0.0 sec) ENN=     33.761268544946 Eh

SHARK setup successfully completed in   0.0 seconds

Maximum memory used throughout the entire GTOINT-calculation: 4.0 MB

Diagonalization of the overlap matrix:
Smallest eigenvalue                        ... 1.510e-02
Time for diagonalization                   ...    0.001 sec
Threshold for overlap eigenvalues          ... 1.000e-08
Number of eigenvalues below threshold      ... 0
Time for construction of square roots      ...    0.000 sec
Total time needed                          ...    0.001 sec

--------------
SCF ITERATIONS
--------------
ITER       Energy         Delta-E        Max-DP      RMS-DP      [F,P]     Damp
               ***  Starting incremental Fock matrix formation  ***
                      *** Initiating the SOSCF procedure ***
                      *** Re-Reading the Fockian *** 
                      *** Removing any level shift *** 
ITER      Energy       Delta-E        Grad      Rot      Max-DP    RMS-DP
  0    -77.60095628 -77.6009562778  0.000807  0.000807  0.000745  0.000109
               *** Restarting incremental Fock matrix formation ***
  1    -77.60096150  -0.0000052270  0.000283  0.000302  0.000525  0.000057
  2    -77.60096218  -0.0000006795  0.000076  0.000106  0.000128  0.000020
  3    -77.60096224  -0.0000000585  0.000013  0.000010  0.000015  0.000002
  4    -77.60096224  -0.0000000008  0.000003  0.000002  0.000010  0.000001
                 **** Energy Check signals convergence ****
              ***Rediagonalizing the Fockian in SOSCF/NRSCF***

               *****************************************************
               *                     SUCCESS                       *
               *           SCF CONVERGED AFTER   5 CYCLES          *
               *****************************************************

Total Energy       :          -77.60096224 Eh           -2111.62954 eV
  Last Energy change         ...   -4.9027e-11  Tolerance :   1.0000e-08
  Last MAX-Density change    ...    2.3941e-06  Tolerance :   1.0000e-07
             **** THE GBW FILE WAS UPDATED (Eth_opt_freq.gbw) ****
             **** DENSITY Eth_opt_freq.scfp WAS UPDATED ****
             **** ENERGY FILE WAS UPDATED (Eth_opt_freq.en.tmp) ****
             **** THE GBW FILE WAS UPDATED (Eth_opt_freq.gbw) ****
             **** DENSITY Eth_opt_freq.scfp WAS UPDATED ****
Total SCF time: 0 days 0 hours 0 min 0 sec 

Maximum memory used throughout the entire SCF-calculation: 223.8 MB

-------------------------   --------------------
FINAL SINGLE POINT ENERGY       -77.600962243702
-------------------------   --------------------

------------------------------------------------------------------------------
                         ORCA SCF GRADIENT CALCULATION
------------------------------------------------------------------------------

Gradient of the Hartree-Fock SCF energy:
Hartree-Fock type                ... RHF
Number of operators              ...    1
Number of atoms                  ...    6
Basis set dimensions             ...   26
Integral neglect threshold       ... 2.5e-11
Integral primitive cutoff        ... 2.5e-12
SHARK Integral package           ... ON

Nuc. rep. gradient       (SHARK) ... done (  0.0 sec)
HCore & Overlap gradient (SHARK) ... done (  0.0 sec)
Two-Electron gradient    (SHARK) ... done (  0.0 sec)

------------------
CARTESIAN GRADIENT
------------------

   1   C   :   -0.001990238    0.000000000    0.000000000
   2   C   :    0.001990238    0.000000000    0.000000000
   3   H   :    0.001143016    0.000239486   -0.000000000
   4   H   :    0.001143016   -0.000239486   -0.000000000
   5   H   :   -0.001143016    0.000239486   -0.000000000
   6   H   :   -0.001143016   -0.000239486   -0.000000000

Difference to translation invariance:
           :    0.0000000000    0.0000000000   -0.0000000000

Difference to rotation invariance:
           :   -0.0000000000    0.0000000000   -0.0000000000

Norm of the cartesian gradient     ...    0.0036575195
RMS gradient                       ...    0.0008620856
MAX gradient                       ...    0.0019902376

-------
TIMINGS
-------

Total SCF gradient time            ...        0.065 sec

One electron gradient       ....       0.003 sec  (  5.1%)
Two electron gradient       ....       0.026 sec  ( 39.4%)

Maximum memory used throughout the entire SCFGRAD-calculation: 6.6 MB
------------------------------------------------------------------------------
                         ORCA GEOMETRY RELAXATION STEP
------------------------------------------------------------------------------

Reading the OPT-File                    .... done
Getting information on internals        .... done
Copying old internal coords+grads       .... done
Making the new internal coordinates     .... (new redundants).... done
Validating the new internal coordinates .... (new redundants).... done
Calculating the B-matrix                .... done
Calculating the G,G- and P matrices     .... done
Transforming gradient to internals      .... done
Projecting the internal gradient        .... done
Number of atoms                         ....   6
Number of internal coordinates          ....  15
Current Energy                          ....   -77.600962244 Eh
Current gradient norm                   ....     0.003657519 Eh/bohr
Maximum allowed component of the step   ....  0.300
Current trust radius                    ....  0.300
Updating the Hessian (BFGS)             .... done
Forming the augmented Hessian           .... done
Diagonalizing the augmented Hessian     .... done
Last element of RFO vector              ....  0.999818130
Lowest eigenvalues of augmented Hessian:
 -0.000050155  0.041595206  0.041595206  0.041595206  0.134868073
Length of the computed step             ....  0.019074573
The final length of the internal step   ....  0.019074573
Converting the step to cartesian space:
 Initial RMS(Int)=    0.0049250336
Transforming coordinates:
 Iter   0:  RMS(Cart)=    0.0049586704 RMS(Int)=    2.2943001678
 Iter   1:  RMS(Cart)=    0.0000145384 RMS(Int)=    0.0000158052
 Iter   2:  RMS(Cart)=    0.0000000770 RMS(Int)=    0.0000000728
done
Storing new coordinates                 .... done

                                .--------------------.
          ----------------------|Geometry convergence|-------------------------
          Item                value                   Tolerance       Converged
          ---------------------------------------------------------------------
          Energy change      -0.0000598095            0.0000050000      NO
          RMS gradient        0.0006991912            0.0001000000      NO
          MAX gradient        0.0014857739            0.0003000000      NO
          RMS step            0.0049250336            0.0020000000      NO
          MAX step            0.0108844693            0.0040000000      NO
          ........................................................
          Max(Bonds)      0.0007      Max(Angles)    0.62
          Max(Dihed)        0.00      Max(Improp)    0.00
          ---------------------------------------------------------------------

The optimization has not yet converged - more geometry cycles are needed


    ---------------------------------------------------------------------------
                         Redundant Internal Coordinates
                            (Angstroem and degrees)

        Definition                    Value    dE/dq     Step     New-Value
    ----------------------------------------------------------------------------
     1. B(C   1,C   0)                1.3154 -0.000296 -0.0007    1.3147   
     2. B(H   2,C   0)                1.0730 -0.000395  0.0007    1.0737   
     3. B(H   3,C   0)                1.0730 -0.000395  0.0007    1.0737   
     4. B(H   4,C   1)                1.0730 -0.000395  0.0007    1.0737   
     5. B(H   5,C   1)                1.0730 -0.000395  0.0007    1.0737   
     6. A(H   2,C   0,H   3)          116.83  0.001486   -0.62    116.21   
     7. A(C   1,C   0,H   2)          121.58 -0.000743    0.31    121.90   
     8. A(C   1,C   0,H   3)          121.58 -0.000743    0.31    121.90   
     9. A(H   4,C   1,H   5)          116.83  0.001486   -0.62    116.21   
    10. A(C   0,C   1,H   5)          121.58 -0.000743    0.31    121.90   
    11. A(C   0,C   1,H   4)          121.58 -0.000743    0.31    121.90   
    12. D(H   4,C   1,C   0,H   3)    180.00 -0.000000    0.00    180.00   
    13. D(H   5,C   1,C   0,H   2)   -180.00  0.000000   -0.00   -180.00   
    14. D(H   5,C   1,C   0,H   3)     -0.00 -0.000000    0.00      0.00   
    15. D(H   4,C   1,C   0,H   2)      0.00  0.000000   -0.00     -0.00   
    ----------------------------------------------------------------------------

         *************************************************************
         *                GEOMETRY OPTIMIZATION CYCLE   4            *
         *************************************************************
---------------------------------
CARTESIAN COORDINATES (ANGSTROEM)
---------------------------------
  C      0.010549   -0.000000   -0.000000
  C      1.325241    0.000000   -0.000000
  H     -0.556750    0.911555    0.000000
  H     -0.556750   -0.911555    0.000000
  H      1.892540    0.911555    0.000000
  H      1.892540   -0.911555    0.000000

----------------------------
CARTESIAN COORDINATES (A.U.)
----------------------------
  NO LB      ZA    FRAG     MASS         X           Y           Z
   0 C     6.0000    0    12.011    0.019934   -0.000000   -0.000000
   1 C     6.0000    0    12.011    2.504343    0.000000   -0.000000
   2 H     1.0000    0     1.008   -1.052105    1.722590    0.000000
   3 H     1.0000    0     1.008   -1.052105   -1.722590    0.000000
   4 H     1.0000    0     1.008    3.576382    1.722590    0.000000
   5 H     1.0000    0     1.008    3.576382   -1.722590    0.000000

--------------------------------
INTERNAL COORDINATES (ANGSTROEM)
--------------------------------
 C      0   0   0     0.000000000000     0.00000000     0.00000000
 C      1   0   0     1.314692580604     0.00000000     0.00000000
 H      1   2   0     1.073667141938   121.89571345     0.00000000
 H      1   2   3     1.073667141938   121.89571345   180.00000000
 H      2   1   3     1.073667141938   121.89571345     0.00000000
 H      2   1   3     1.073667141938   121.89571345   180.00000000

---------------------------
INTERNAL COORDINATES (A.U.)
---------------------------
 C      0   0   0     0.000000000000     0.00000000     0.00000000
 C      1   0   0     2.484408927640     0.00000000     0.00000000
 H      1   2   0     2.028936857253   121.89571345     0.00000000
 H      1   2   3     2.028936857253   121.89571345   180.00000000
 H      2   1   3     2.028936857253   121.89571345     0.00000000
 H      2   1   3     2.028936857253   121.89571345   180.00000000

------------------------------------------------------------------------------
                   ___                                                        
                  /   \      - P O W E R E D   B Y -                         
                 /     \                                                     
                 |  |  |   _    _      __       _____    __    __             
                 |  |  |  | |  | |    /  \     |  _  \  |  |  /  |          
                  \  \/   | |  | |   /    \    | | | |  |  | /  /          
                 / \  \   | |__| |  /  /\  \   | |_| |  |  |/  /          
                |  |  |   |  __  | /  /__\  \  |    /   |      \           
                |  |  |   | |  | | |   __   |  |    \   |  |\   \          
                \     /   | |  | | |  |  |  |  | |\  \  |  | \   \       
                 \___/    |_|  |_| |__|  |__|  |_| \__\ |__|  \__/        
                                                                              
                      - O R C A' S   B I G   F R I E N D -                    
                                      &                                       
                       - I N T E G R A L  F E E D E R -                       
                                                                              
 v1 FN, 2020, v2 2021                                                         
------------------------------------------------------------------------------


Reading SHARK input file Eth_opt_freq.SHARKINP.tmp ... ok
----------------------
SHARK INTEGRAL PACKAGE
----------------------

Number of atoms                             ...      6
Number of basis functions                   ...     26
Number of shells                            ...     18
Maximum angular momentum                    ...      1
Integral batch strategy                     ... SHARK/LIBINT Hybrid
RI-J (if used) integral strategy            ... SPLIT-RIJ (Revised 2003 algorithm where possible)
Printlevel                                  ...      1
Contraction scheme used                     ... SEGMENTED contraction
Coulomb Range Separation                    ... NOT USED
Exchange Range Separation                   ... NOT USED
Finite Nucleus Model                        ... NOT USED
Auxiliary Coulomb fitting basis             ... NOT available
Auxiliary J/K fitting basis                 ... NOT available
Auxiliary Correlation fitting basis         ... NOT available
Auxiliary 'external' fitting basis          ... NOT available
Integral threshold                          ...     2.500000e-11
Primitive cut-off                           ...     2.500000e-12
Primitive pair pre-selection threshold      ...     2.500000e-12

Calculating pre-screening integrals         ... done (  0.0 sec) Dimension = 18
Organizing shell pair data                  ... done (  0.0 sec)
Shell pair information
Total number of shell pairs                 ...       171
Shell pairs after pre-screening             ...       171
Total number of primitive shell pairs       ...       479
Primitive shell pairs kept                  ...       447
          la=0 lb=0:    105 shell pairs
          la=1 lb=0:     56 shell pairs
          la=1 lb=1:     10 shell pairs

Calculating one electron integrals          ... done (  0.0 sec)
Calculating Nuclear repulsion               ... done (  0.0 sec) ENN=     33.751867805526 Eh

SHARK setup successfully completed in   0.1 seconds

Maximum memory used throughout the entire GTOINT-calculation: 4.0 MB

Diagonalization of the overlap matrix:
Smallest eigenvalue                        ... 1.511e-02
Time for diagonalization                   ...    0.000 sec
Threshold for overlap eigenvalues          ... 1.000e-08
Number of eigenvalues below threshold      ... 0
Time for construction of square roots      ...    0.000 sec
Total time needed                          ...    0.001 sec

--------------
SCF ITERATIONS
--------------
ITER       Energy         Delta-E        Max-DP      RMS-DP      [F,P]     Damp
               ***  Starting incremental Fock matrix formation  ***
                      *** Initiating the SOSCF procedure ***
                      *** Re-Reading the Fockian *** 
                      *** Removing any level shift *** 
ITER      Energy       Delta-E        Grad      Rot      Max-DP    RMS-DP
  0    -77.60098361 -77.6009836097  0.000745  0.000745  0.001524  0.000133
               *** Restarting incremental Fock matrix formation ***
  1    -77.60098751  -0.0000038967  0.000228  0.000243  0.000631  0.000060
  2    -77.60098803  -0.0000005261  0.000067  0.000099  0.000143  0.000020
  3    -77.60098808  -0.0000000454  0.000008  0.000005  0.000024  0.000002
                  ***Gradient check signals convergence***
              ***Rediagonalizing the Fockian in SOSCF/NRSCF***

               *****************************************************
               *                     SUCCESS                       *
               *           SCF CONVERGED AFTER   4 CYCLES          *
               *****************************************************

Total Energy       :          -77.60098808 Eh           -2111.63024 eV
  Last Energy change         ...   -3.2216e-10  Tolerance :   1.0000e-08
  Last MAX-Density change    ...    1.1749e-05  Tolerance :   1.0000e-07
             **** THE GBW FILE WAS UPDATED (Eth_opt_freq.gbw) ****
             **** DENSITY Eth_opt_freq.scfp WAS UPDATED ****
             **** ENERGY FILE WAS UPDATED (Eth_opt_freq.en.tmp) ****
             **** THE GBW FILE WAS UPDATED (Eth_opt_freq.gbw) ****
             **** DENSITY Eth_opt_freq.scfp WAS UPDATED ****
Total SCF time: 0 days 0 hours 0 min 0 sec 

Maximum memory used throughout the entire SCF-calculation: 223.8 MB

-------------------------   --------------------
FINAL SINGLE POINT ENERGY       -77.600988078189
-------------------------   --------------------

------------------------------------------------------------------------------
                         ORCA SCF GRADIENT CALCULATION
------------------------------------------------------------------------------

Gradient of the Hartree-Fock SCF energy:
Hartree-Fock type                ... RHF
Number of operators              ...    1
Number of atoms                  ...    6
Basis set dimensions             ...   26
Integral neglect threshold       ... 2.5e-11
Integral primitive cutoff        ... 2.5e-12
SHARK Integral package           ... ON

Nuc. rep. gradient       (SHARK) ... done (  0.0 sec)
HCore & Overlap gradient (SHARK) ... done (  0.0 sec)
Two-Electron gradient    (SHARK) ... done (  0.0 sec)

------------------
CARTESIAN GRADIENT
------------------

   1   C   :    0.000307039   -0.000000000   -0.000000000
   2   C   :   -0.000307039    0.000000000   -0.000000000
   3   H   :    0.000029619    0.000041636    0.000000000
   4   H   :    0.000029619   -0.000041636    0.000000000
   5   H   :   -0.000029619    0.000041636    0.000000000
   6   H   :   -0.000029619   -0.000041636    0.000000000

Difference to translation invariance:
           :    0.0000000000   -0.0000000000   -0.0000000000

Difference to rotation invariance:
           :   -0.0000000000   -0.0000000000   -0.0000000000

Norm of the cartesian gradient     ...    0.0004460815
RMS gradient                       ...    0.0001051424
MAX gradient                       ...    0.0003070385

-------
TIMINGS
-------

Total SCF gradient time            ...        0.035 sec

One electron gradient       ....       0.003 sec  (  7.2%)
Two electron gradient       ....       0.020 sec  ( 57.2%)

Maximum memory used throughout the entire SCFGRAD-calculation: 6.6 MB
------------------------------------------------------------------------------
                         ORCA GEOMETRY RELAXATION STEP
------------------------------------------------------------------------------

Reading the OPT-File                    .... done
Getting information on internals        .... done
Copying old internal coords+grads       .... done
Making the new internal coordinates     .... (new redundants).... done
Validating the new internal coordinates .... (new redundants).... done
Calculating the B-matrix                .... done
Calculating the G,G- and P matrices     .... done
Transforming gradient to internals      .... done
Projecting the internal gradient        .... done
Number of atoms                         ....   6
Number of internal coordinates          ....  15
Current Energy                          ....   -77.600988078 Eh
Current gradient norm                   ....     0.000446082 Eh/bohr
Maximum allowed component of the step   ....  0.300
Current trust radius                    ....  0.300
Updating the Hessian (BFGS)             .... done
Forming the augmented Hessian           .... done
Diagonalizing the augmented Hessian     .... done
Last element of RFO vector              ....  0.999999707
Lowest eigenvalues of augmented Hessian:
 -0.000000223  0.041595206  0.041595206  0.041595206  0.131190590
Length of the computed step             ....  0.000765306
The final length of the internal step   ....  0.000765306
Converting the step to cartesian space:
 Initial RMS(Int)=    0.0001976011
Transforming coordinates:
 Iter   0:  RMS(Cart)=    0.0002697147 RMS(Int)=    2.2942948923
 Iter   1:  RMS(Cart)=    0.0000000169 RMS(Int)=    0.0000000184
done
Storing new coordinates                 .... done

                                .--------------------.
          ----------------------|Geometry convergence|-------------------------
          Item                value                   Tolerance       Converged
          ---------------------------------------------------------------------
          Energy change      -0.0000258345            0.0000050000      NO
          RMS gradient        0.0000993013            0.0001000000      YES
          MAX gradient        0.0003662768            0.0003000000      NO
          RMS step            0.0001976011            0.0020000000      YES
          MAX step            0.0004065586            0.0040000000      YES
          ........................................................
[...]
      pz      :     1.000000  p :     3.217047
      px      :     1.113146
      py      :     1.103901
  2 H s       :     0.905266  s :     0.905266
  3 H s       :     0.905266  s :     0.905266
  4 H s       :     0.905266  s :     0.905266
  5 H s       :     0.905266  s :     0.905266


                      *****************************
                      * MAYER POPULATION ANALYSIS *
                      *****************************

  NA   - Mulliken gross atomic population
  ZA   - Total nuclear charge
  QA   - Mulliken gross atomic charge
  VA   - Mayer's total valence
  BVA  - Mayer's bonded valence
  FA   - Mayer's free valence

  ATOM       NA         ZA         QA         VA         BVA        FA
  0 C      6.4254     6.0000    -0.4254     3.7638     3.7638     0.0000
  1 C      6.4254     6.0000    -0.4254     3.7638     3.7638     0.0000
  2 H      0.7873     1.0000     0.2127     0.9229     0.9229    -0.0000
  3 H      0.7873     1.0000     0.2127     0.9229     0.9229    -0.0000
  4 H      0.7873     1.0000     0.2127     0.9229     0.9229    -0.0000
  5 H      0.7873     1.0000     0.2127     0.9229     0.9229    -0.0000

  Mayer bond orders larger than 0.100000
B(  0-C ,  1-C ) :   1.9214 B(  0-C ,  2-H ) :   0.9414 B(  0-C ,  3-H ) :   0.9414 
B(  1-C ,  4-H ) :   0.9414 B(  1-C ,  5-H ) :   0.9414 

-------
TIMINGS
-------

Total SCF time: 0 days 0 hours 0 min 0 sec 

Total time                  ....       0.118 sec
Sum of individual times     ....       0.025 sec  ( 20.9%)

Fock matrix formation       ....       0.022 sec  ( 18.8%)
Diagonalization             ....       0.000 sec  (  0.1%)
Density matrix formation    ....       0.000 sec  (  0.0%)
Population analysis         ....       0.001 sec  (  1.2%)
Initial guess               ....       0.001 sec  (  0.5%)
Orbital Transformation      ....       0.000 sec  (  0.0%)
Orbital Orthonormalization  ....       0.000 sec  (  0.1%)
DIIS solution               ....       0.000 sec  (  0.0%)
SOSCF solution              ....       0.000 sec  (  0.3%)

Maximum memory used throughout the entire SCF-calculation: 223.8 MB

-------------------------   --------------------
FINAL SINGLE POINT ENERGY       -77.600988197934
-------------------------   --------------------

                                *** OPTIMIZATION RUN DONE ***

                            ***************************************
                            *     ORCA property calculations      *
                            ***************************************

                                    ---------------------
                                    Active property flags
                                    ---------------------
   (+) Dipole Moment


------------------------------------------------------------------------------
                       ORCA ELECTRIC PROPERTIES CALCULATION
------------------------------------------------------------------------------

Dipole Moment Calculation                       ... on
Quadrupole Moment Calculation                   ... off
Polarizability Calculation                      ... off
GBWName                                         ... Eth_opt_freq.gbw
Electron density                                ... Eth_opt_freq.scfp
The origin for moment calculation is the CENTER OF MASS  = ( 1.262139,  0.000000  0.000000)

-------------
DIPOLE MOMENT
-------------
                                X             Y             Z
Electronic contribution:     -0.00000       0.00000       0.00000
Nuclear contribution   :      0.00000      -0.00000      -0.00000
                        -----------------------------------------
Total Dipole Moment    :      0.00000       0.00000      -0.00000
                        -----------------------------------------
Magnitude (a.u.)       :      0.00000
Magnitude (Debye)      :      0.00000



--------------------
Rotational spectrum 
--------------------
 
Rotational constants in cm-1:     5.033005     1.025838     0.852151 
Rotational constants in MHz : 150885.706290 30753.857007 25546.843162 

 Dipole components along the rotational axes: 
x,y,z [a.u.] :    -0.000000     0.000000    -0.000000 
x,y,z [Debye]:    -0.000000     0.000000    -0.000000 

 

-------------------------------------------------------------------------------
                               ORCA SCF HESSIAN
-------------------------------------------------------------------------------

                   --------- SHARK INITIALIZATION DONE ---------

Hessian of the Hartree-Fock SCF energy:
Hartree-Fock type                                ... RHF
Number of operators                              ...    1
Number of atoms                                  ...    6
Basis set dimensions                             ...   26
Integral neglect threshold                       ... 2.5e-11
Integral primitive cutoff                        ... 2.5e-12

Nuclear repulsion Hessian  (SHARK)               ... done   (      0.0 sec)

----------------------------------------------
Forming right-hand sides of CP-SCF equations     ...
----------------------------------------------
One electron integral derivatives  (SHARK)       ... done   (      0.0 sec)
Transforming the overlap derivative matrices     ... done   (      0.0 sec)
Making the Q(x) pseudodensities                  ... done   (      0.0 sec)
Adding the E*S(x)*S(y) terms to the Hessian      ... done   (      0.0 sec)
Calculating energy weighted overlap derivatives  ... done   (      0.0 sec)
Two electron integral derivatives (SHARK)        ... done   (      0.0 sec)
tr(F(y)Q(x)) contribution to the Hessian         ... done   (      0.0 sec)
Response fock operator R(S(x)) (SHARK)           ... done   (      0.1 sec)
tr(F(y)S(x)) contribution to the Hessian         ... done   (      0.0 sec)
Transforming and finalizing RHSs                 ... done   (      0.0 sec)

----------------------------------------------
Solving the CP-SCF equations                     ...
----------------------------------------------
     CP-SCF ITERATION   0:   6.9259e-02 (   0.0 sec   0/ 18 done)
     CP-SCF ITERATION   1:   1.2092e-02 (   0.0 sec   0/ 18 done)
     CP-SCF ITERATION   2:   3.6415e-03 (   0.0 sec   0/ 18 done)
     CP-SCF ITERATION   3:   5.5326e-04 (   0.0 sec   8/ 18 done)
     CP-SCF ITERATION   4:   1.4984e-04 (   0.0 sec  14/ 18 done)
     CP-SCF ITERATION   5:   1.9980e-05 (   0.0 sec  18/ 18 done)
                    *** THE CP-SCF HAS CONVERGED ***

                                                 ... done   (      0.1 sec)
Forming perturbed density Hessian contributions  ... done   (      0.0 sec)
2nd integral derivative contribs (SHARK)         ... done   (      0.2 sec)
Dipole derivatives                               ... (center of mass:  1.262139,  0.000000  0.000000)done   (      0.1 sec)

Total SCF Hessian time: 0 days 0 hours 0 min 0 sec 

Writing the Hessian file to the disk             ... done


Maximum memory used throughout the entire SCFHESS-calculation: 45.8 MB

-----------------------
VIBRATIONAL FREQUENCIES
-----------------------

Scaling factor for frequencies =  1.000000000  (already applied!)

   0:         0.00 cm**-1
   1:         0.00 cm**-1
   2:         0.00 cm**-1
   3:         0.00 cm**-1
   4:         0.00 cm**-1
   5:         0.00 cm**-1
   6:       943.35 cm**-1
   7:      1114.83 cm**-1
   8:      1156.58 cm**-1
   9:      1165.57 cm**-1
  10:      1387.06 cm**-1
  11:      1521.91 cm**-1
  12:      1639.51 cm**-1
  13:      1841.59 cm**-1
  14:      3305.34 cm**-1
  15:      3327.02 cm**-1
  16:      3370.89 cm**-1
  17:      3402.50 cm**-1


------------
NORMAL MODES
------------

These modes are the Cartesian displacements weighted by the diagonal matrix
M(i,i)=1/sqrt(m[i]) where m[i] is the mass of the displaced atom
Thus, these vectors are normalized but *not* orthogonal

                  0          1          2          3          4          5    
      0       0.000000   0.000000   0.000000   0.000000   0.000000   0.000000
      1       0.000000   0.000000   0.000000   0.000000   0.000000   0.000000
      2       0.000000   0.000000   0.000000   0.000000   0.000000   0.000000
      3       0.000000   0.000000   0.000000   0.000000   0.000000   0.000000
      4       0.000000   0.000000   0.000000   0.000000   0.000000   0.000000
      5       0.000000   0.000000   0.000000   0.000000   0.000000   0.000000
      6       0.000000   0.000000   0.000000   0.000000   0.000000   0.000000
      7       0.000000   0.000000   0.000000   0.000000   0.000000   0.000000
      8       0.000000   0.000000   0.000000   0.000000   0.000000   0.000000
      9       0.000000   0.000000   0.000000   0.000000   0.000000   0.000000
     10       0.000000   0.000000   0.000000   0.000000   0.000000   0.000000
     11       0.000000   0.000000   0.000000   0.000000   0.000000   0.000000
     12       0.000000   0.000000   0.000000   0.000000   0.000000   0.000000
     13       0.000000   0.000000   0.000000   0.000000   0.000000   0.000000
     14       0.000000   0.000000   0.000000   0.000000   0.000000   0.000000
     15       0.000000   0.000000   0.000000   0.000000   0.000000   0.000000
     16       0.000000   0.000000   0.000000   0.000000   0.000000   0.000000
     17       0.000000   0.000000   0.000000   0.000000   0.000000   0.000000
                  6          7          8          9         10         11    
      0       0.000000   0.000000   0.000000  -0.000000  -0.000000  -0.111377
      1       0.040462   0.000000   0.000000  -0.000000   0.153934  -0.000000
      2       0.000000  -0.083338  -0.152670   0.000000   0.000000   0.000000
      3      -0.000000   0.000000   0.000000   0.000000   0.000000   0.111377
      4       0.040462  -0.000000   0.000000   0.000000  -0.153934   0.000000
      5       0.000000  -0.083338   0.152670  -0.000000   0.000000   0.000000
      6      -0.437115  -0.000000  -0.000000   0.000000  -0.465753  -0.456440
      7      -0.241065   0.000000   0.000000   0.000000  -0.145691  -0.188309
      8       0.000000   0.496515   0.488207   0.500000   0.000000  -0.000000
      9       0.437115  -0.000000  -0.000000  -0.000000   0.465753  -0.456440
     10      -0.241065  -0.000000  -0.000000   0.000000  -0.145691   0.188309
     11      -0.000000   0.496515   0.488207  -0.500000  -0.000000  -0.000000
     12       0.437115   0.000000  -0.000000   0.000000  -0.465753   0.456440
     13      -0.241065   0.000000  -0.000000  -0.000000   0.145691  -0.188309
     14       0.000000   0.496515  -0.488207  -0.500000  -0.000000  -0.000000
     15      -0.437115   0.000000  -0.000000  -0.000000   0.465753   0.456440
     16      -0.241065  -0.000000   0.000000  -0.000000   0.145691   0.188309
     17      -0.000000   0.496515  -0.488207   0.500000   0.000000  -0.000000
                 12         13         14         15         16         17    
      0      -0.068409  -0.284179  -0.043095  -0.056380  -0.000000  -0.000000
      1       0.000000  -0.000000   0.000000   0.000000  -0.069063   0.070207
      2      -0.000000   0.000000  -0.000000  -0.000000  -0.000000   0.000000
      3      -0.068409   0.284179  -0.043095   0.056380   0.000000   0.000000
      4      -0.000000   0.000000  -0.000000  -0.000000   0.069063   0.070207
      5       0.000000  -0.000000   0.000000  -0.000000  -0.000000  -0.000000
      6       0.407569   0.256741   0.256755   0.257916  -0.267286   0.269398
      7       0.285565   0.379084  -0.427958  -0.426486   0.419730  -0.418283
      8       0.000000   0.000000   0.000000   0.000000  -0.000000   0.000000
      9       0.407569   0.256741   0.256755   0.257916   0.267286  -0.269398
     10      -0.285565  -0.379084   0.427958   0.426486   0.419730  -0.418283
     11       0.000000   0.000000   0.000000   0.000000   0.000000  -0.000000
     12       0.407569  -0.256741   0.256755  -0.257916  -0.267286  -0.269398
     13      -0.285565   0.379084   0.427958  -0.426486  -0.419730  -0.418283
     14      -0.000000   0.000000  -0.000000   0.000000   0.000000   0.000000
     15       0.407569  -0.256741   0.256755  -0.257916   0.267286   0.269398
     16       0.285565  -0.379084  -0.427958   0.426486  -0.419730  -0.418283
     17      -0.000000   0.000000  -0.000000   0.000000  -0.000000  -0.000000


-----------
IR SPECTRUM
-----------

 Mode   freq       eps      Int      T**2         TX        TY        TZ
       cm**-1   L/(mol*cm) km/mol    a.u.
----------------------------------------------------------------------------
  6:    943.35   0.000268    1.36  0.000089  ( 0.000000 -0.009424 -0.000000)
  7:   1114.83   0.026576  134.31  0.007439  (-0.000000  0.000000  0.086251)
  8:   1156.58   0.000000    0.00  0.000000  (-0.000000  0.000000 -0.000000)
  9:   1165.57   0.000000    0.00  0.000000  (-0.000000  0.000000  0.000000)
 10:   1387.06   0.000000    0.00  0.000000  ( 0.000000 -0.000000 -0.000000)
 11:   1521.91   0.000000    0.00  0.000000  ( 0.000000 -0.000000 -0.000000)
 12:   1639.51   0.001751    8.85  0.000333  ( 0.018255 -0.000000  0.000000)
 13:   1841.59   0.000000    0.00  0.000000  (-0.000000 -0.000000 -0.000000)
 14:   3305.34   0.003321   16.78  0.000314  (-0.017707 -0.000000  0.000000)
 15:   3327.02   0.000000    0.00  0.000000  ( 0.000000 -0.000000  0.000000)
 16:   3370.89   0.000000    0.00  0.000000  (-0.000000  0.000000 -0.000000)
 17:   3402.50   0.005852   29.58  0.000537  ( 0.000000  0.023168  0.000000)

* The epsilon (eps) is given for a Dirac delta lineshape.
** The dipole moment derivative (T) already includes vibrational overlap.

The first frequency considered to be a vibration is 6
The total number of vibrations considered is 12


--------------------------
THERMOCHEMISTRY AT 298.15K
--------------------------

Temperature         ... 298.15 K
Pressure            ... 1.00 atm
Total Mass          ... 28.05 AMU

Throughout the following assumptions are being made:
  (1) The electronic state is orbitally nondegenerate
  (2) There are no thermally accessible electronically excited states
  (3) Hindered rotations indicated by low frequency modes are not
      treated as such but are treated as vibrations and this may
      cause some error
  (4) All equations used are the standard statistical mechanics
      equations for an ideal gas
  (5) All vibrations are strictly harmonic

freq.     943.35  E(vib)   ...       0.03 
freq.    1114.83  E(vib)   ...       0.01 
freq.    1156.58  E(vib)   ...       0.01 
freq.    1165.57  E(vib)   ...       0.01 
freq.    1387.06  E(vib)   ...       0.00 
freq.    1521.91  E(vib)   ...       0.00 
freq.    1639.51  E(vib)   ...       0.00 
freq.    1841.59  E(vib)   ...       0.00 
freq.    3305.34  E(vib)   ...       0.00 
freq.    3327.02  E(vib)   ...       0.00 
freq.    3370.89  E(vib)   ...       0.00 
freq.    3402.50  E(vib)   ...       0.00 

------------
INNER ENERGY
------------

The inner energy is: U= E(el) + E(ZPE) + E(vib) + E(rot) + E(trans)
    E(el)   - is the total energy from the electronic structure calculation
              = E(kin-el) + E(nuc-el) + E(el-el) + E(nuc-nuc)
    E(ZPE)  - the the zero temperature vibrational energy from the frequency calculation
    E(vib)  - the the finite temperature correction to E(ZPE) due to population
              of excited vibrational states
    E(rot)  - is the rotational thermal energy
    E(trans)- is the translational thermal energy

Summary of contributions to the inner energy U:
Electronic energy                ...    -77.60098820 Eh
Zero point energy                ...      0.05507738 Eh      34.56 kcal/mol
Thermal vibrational correction   ...      0.00012472 Eh       0.08 kcal/mol
Thermal rotational correction    ...      0.00141627 Eh       0.89 kcal/mol
Thermal translational correction ...      0.00141627 Eh       0.89 kcal/mol
-----------------------------------------------------------------------
Total thermal energy                    -77.54295356 Eh


Summary of corrections to the electronic energy:
(perhaps to be used in another calculation)
Total thermal correction                  0.00295726 Eh       1.86 kcal/mol
Non-thermal (ZPE) correction              0.05507738 Eh      34.56 kcal/mol
-----------------------------------------------------------------------
Total correction                          0.05803464 Eh      36.42 kcal/mol


--------
ENTHALPY
--------

The enthalpy is H = U + kB*T
                kB is Boltzmann's constant
Total free energy                 ...    -77.54295356 Eh 
Thermal Enthalpy correction       ...      0.00094421 Eh       0.59 kcal/mol
-----------------------------------------------------------------------
Total Enthalpy                    ...    -77.54200935 Eh


Note: Rotational entropy computed according to Herzberg 
Infrared and Raman Spectra, Chapter V,1, Van Nostrand Reinhold, 1945 
Point Group:  D2h, Symmetry Number:   4  
Rotational constants in cm-1:     5.033005     1.025838     0.852151 

Vibrational entropy computed according to the QRRHO of S. Grimme
Chem.Eur.J. 2012 18 9955


-------
ENTROPY
-------

The entropy contributions are T*S = T*(S(el)+S(vib)+S(rot)+S(trans))
     S(el)   - electronic entropy
     S(vib)  - vibrational entropy
     S(rot)  - rotational entropy
     S(trans)- translational entropy
The entropies will be listed as multiplied by the temperature to get
units of energy

Electronic entropy                ...      0.00000000 Eh      0.00 kcal/mol
Vibrational entropy               ...      0.00014839 Eh      0.09 kcal/mol
Rotational entropy                ...      0.00750248 Eh      4.71 kcal/mol
Translational entropy             ...      0.01707111 Eh     10.71 kcal/mol
-----------------------------------------------------------------------
Final entropy term                ...      0.02472197 Eh     15.51 kcal/mol

In case the symmetry of your molecule has not been determined correctly
or in case you have a reason to use a different symmetry number we print 
out the resulting rotational entropy values for sn=1,12 :
 --------------------------------------------------------
|  sn= 1 | S(rot)=       0.00881139 Eh      5.53 kcal/mol|
|  sn= 2 | S(rot)=       0.00815693 Eh      5.12 kcal/mol|
|  sn= 3 | S(rot)=       0.00777410 Eh      4.88 kcal/mol|
|  sn= 4 | S(rot)=       0.00750248 Eh      4.71 kcal/mol|
|  sn= 5 | S(rot)=       0.00729179 Eh      4.58 kcal/mol|
|  sn= 6 | S(rot)=       0.00711965 Eh      4.47 kcal/mol|
|  sn= 7 | S(rot)=       0.00697410 Eh      4.38 kcal/mol|
|  sn= 8 | S(rot)=       0.00684802 Eh      4.30 kcal/mol|
|  sn= 9 | S(rot)=       0.00673681 Eh      4.23 kcal/mol|
|  sn=10 | S(rot)=       0.00663733 Eh      4.16 kcal/mol|
|  sn=11 | S(rot)=       0.00654734 Eh      4.11 kcal/mol|
|  sn=12 | S(rot)=       0.00646519 Eh      4.06 kcal/mol|
 --------------------------------------------------------


-------------------
GIBBS FREE ENERGY
-------------------

The Gibbs free energy is G = H - T*S

Total enthalpy                    ...    -77.54200935 Eh 
Total entropy correction          ...     -0.02472197 Eh    -15.51 kcal/mol
-----------------------------------------------------------------------
Final Gibbs free energy         ...    -77.56673132 Eh

For completeness - the Gibbs free energy minus the electronic energy
G-E(el)                           ...      0.03425688 Eh     21.50 kcal/mol


Timings for individual modules:

Sum of individual times         ...        3.387 sec (=   0.056 min)
GTO integral calculation        ...        0.539 sec (=   0.009 min)  15.9 %
SCF iterations                  ...        1.053 sec (=   0.018 min)  31.1 %
SCF Gradient evaluation         ...        0.573 sec (=   0.010 min)  16.9 %
Geometry relaxation             ...        0.216 sec (=   0.004 min)   6.4 %
Analytical frequency calculation...        1.007 sec (=   0.017 min)  29.7 %
                             ****ORCA TERMINATED NORMALLY****
TOTAL RUN TIME: 0 days 0 hours 0 minutes 4 seconds 230 msec
