3
Coordinates from ORCA-job O3 Relaxed Surface Scan Step 1
  O      -0.049476     -0.069626      0.000000
  O       1.214743      0.059186      0.000000
  O       1.928658      1.110383      0.000000
>
3
Coordinates from ORCA-job O3 Relaxed Surface Scan Step 2
  O       0.005306      0.008381      0.000000
  O       1.275272     -0.009725      0.000000
  O       2.077743      0.974760      0.000000
>
3
Coordinates from ORCA-job O3 Relaxed Surface Scan Step 3
  O       0.005210      0.008461      0.000000
  O       1.274754     -0.009627      0.000000
  O       2.048582      0.996989      0.000000
>
3
Coordinates from ORCA-job O3 Relaxed Surface Scan Step 4
  O       0.005005      0.008507      0.000000
  O       1.274482     -0.009579      0.000000
  O       2.019268      1.018612      0.000000
>
3
Coordinates from ORCA-job O3 Relaxed Surface Scan Step 5
  O       0.005003      0.008615      0.000000
  O       1.274532     -0.009471      0.000000
  O       1.989741      1.039553      0.000000
>
3
Coordinates from ORCA-job O3 Relaxed Surface Scan Step 6
  O       0.004901      0.008694      0.000000
  O       1.274714     -0.009397      0.000000
  O       1.959894      1.059810      0.000000
>
3
Coordinates from ORCA-job O3 Relaxed Surface Scan Step 7
  O       0.004597      0.008708      0.000000
  O       1.275167     -0.009396      0.000000
  O       1.929999      1.079548      0.000000
>
3
Coordinates from ORCA-job O3 Relaxed Surface Scan Step 8
  O       0.004496      0.008789      0.000000
  O       1.276059     -0.009331      0.000000
  O       1.900095      1.098705      0.000000
>
3
Coordinates from ORCA-job O3 Relaxed Surface Scan Step 9
  O       0.004325      0.008850      0.000000
  O       1.277205     -0.009290      0.000000
  O       1.870039      1.117255      0.000000
>
3
Coordinates from ORCA-job O3 Relaxed Surface Scan Step 10
  O       0.004137      0.008906      0.000000
  O       1.278683     -0.009258      0.000000
  O       1.839920      1.135229      0.000000
>
3
Coordinates from ORCA-job O3 Relaxed Surface Scan Step 11
  O       0.003941      0.008960      0.000000
  O       1.280517     -0.009231      0.000000
  O       1.809764      1.152638      0.000000
>
3
Coordinates from ORCA-job O3 Relaxed Surface Scan Step 12
  O       0.003731      0.009012      0.000000
  O       1.282726     -0.009212      0.000000
  O       1.779591      1.169492      0.000000
>
3
Coordinates from ORCA-job O3 Relaxed Surface Scan Step 13
  O       0.003510      0.009060      0.000000
  O       1.285331     -0.009203      0.000000
  O       1.749430      1.185806      0.000000
>
3
Coordinates from ORCA-job O3 Relaxed Surface Scan Step 14
  O       0.003276      0.009105      0.000000
  O       1.288353     -0.009203      0.000000
  O       1.719302      1.201597      0.000000
>
3
Coordinates from ORCA-job O3 Relaxed Surface Scan Step 15
  O       0.003031      0.009146      0.000000
  O       1.291813     -0.009214      0.000000
  O       1.689228      1.216884      0.000000
>
3
Coordinates from ORCA-job O3 Relaxed Surface Scan Step 16
  O       0.002774      0.009184      0.000000
  O       1.295734     -0.009237      0.000000
  O       1.659228      1.231688      0.000000
>
3
Coordinates from ORCA-job O3 Relaxed Surface Scan Step 17
  O       0.002505      0.009218      0.000000
  O       1.300138     -0.009272      0.000000
  O       1.629319      1.246032      0.000000
>
3
Coordinates from ORCA-job O3 Relaxed Surface Scan Step 18
  O       0.002221      0.009250      0.000000
  O       1.305056     -0.009315      0.000000
  O       1.599514      1.259931      0.000000
>
3
Coordinates from ORCA-job O3 Relaxed Surface Scan Step 19
  O       0.001920      0.009277      0.000000
  O       1.310521     -0.009368      0.000000
  O       1.569838      1.273403      0.000000
>
3
Coordinates from ORCA-job O3 Relaxed Surface Scan Step 20
  O       0.001600      0.009298      0.000000
  O       1.316568     -0.009438      0.000000
  O       1.540315      1.286474      0.000000
>
3
Coordinates from ORCA-job O3 Relaxed Surface Scan Step 21
  O       0.001261      0.009312      0.000000
  O       1.323235     -0.009528      0.000000
  O       1.510970      1.299184      0.000000
>
3
Coordinates from ORCA-job O3 Relaxed Surface Scan Step 22
  O       0.000904      0.009321      0.000000
  O       1.330563     -0.009633      0.000000
  O       1.481817      1.311566      0.000000
>
3
Coordinates from ORCA-job O3 Relaxed Surface Scan Step 23
  O       0.000526      0.009326      0.000000
  O       1.338597     -0.009750      0.000000
  O       1.452872      1.323644      0.000000
>
3
Coordinates from ORCA-job O3 Relaxed Surface Scan Step 24
  O       0.000122      0.009323      0.000000
  O       1.347391     -0.009884      0.000000
  O       1.424156      1.335449      0.000000
>
3
Coordinates from ORCA-job O3 Relaxed Surface Scan Step 25
  O      -0.000309      0.009314      0.000000
  O       1.357006     -0.010034      0.000000
  O       1.395694      1.347010      0.000000
>
3
Coordinates from ORCA-job O3 Relaxed Surface Scan Step 26
  O      -0.000767      0.009301      0.000000
  O       1.367508     -0.010193      0.000000
  O       1.367506      1.358348      0.000000
>
3
Coordinates from ORCA-job O3 Relaxed Surface Scan Step 27
  O      -0.001255      0.009283      0.000000
  O       1.378967     -0.010365      0.000000
  O       1.339618      1.369484      0.000000
>
3
Coordinates from ORCA-job O3 Relaxed Surface Scan Step 28
  O      -0.001770      0.009258      0.000000
  O       1.391452     -0.010558      0.000000
  O       1.312057      1.380450      0.000000
>
3
Coordinates from ORCA-job O3 Relaxed Surface Scan Step 29
  O      -0.002307      0.009227      0.000000
  O       1.405032     -0.010776      0.000000
  O       1.284833      1.391286      0.000000
>
3
Coordinates from ORCA-job O3 Relaxed Surface Scan Step 30
  O      -0.002861      0.009197      0.000000
  O       1.419766     -0.011012      0.000000
  O       1.257944      1.402028      0.000000
>
3
Coordinates from ORCA-job O3 Relaxed Surface Scan Step 31
  O      -0.003430      0.009167      0.000000
  O       1.435716     -0.011268      0.000000
  O       1.231379      1.412701      0.000000
>
3
Coordinates from ORCA-job O3 Relaxed Surface Scan Step 32
  O      -0.004010      0.009138      0.000000
  O       1.452936     -0.011552      0.000000
  O       1.205122      1.423339      0.000000
>
3
Coordinates from ORCA-job O3 Relaxed Surface Scan Step 33
  O      -0.004595      0.009111      0.000000
  O       1.471479     -0.011866      0.000000
  O       1.179139      1.433982      0.000000
>
3
Coordinates from ORCA-job O3 Relaxed Surface Scan Step 34
  O      -0.005190      0.009095      0.000000
  O       1.491398     -0.012190      0.000000
  O       1.153382      1.444642      0.000000
>
3
Coordinates from ORCA-job O3 Relaxed Surface Scan Step 35
  O      -0.005809      0.009094      0.000000
  O       1.512764     -0.012502      0.000000
  O       1.127822      1.455286      0.000000
>
3
Coordinates from ORCA-job O3 Relaxed Surface Scan Step 36
  O      -0.006462      0.009106      0.000000
  O       1.535672     -0.012802      0.000000
  O       1.102469      1.465862      0.000000
>
3
Coordinates from ORCA-job O3 Relaxed Surface Scan Step 37
  O      -0.007162      0.009138      0.000000
  O       1.560231     -0.013065      0.000000
  O       1.077346      1.476288      0.000000
>
3
Coordinates from ORCA-job O3 Relaxed Surface Scan Step 38
  O      -0.008129      0.009212      0.000000
  O       1.586706     -0.013034      0.000000
  O       1.052593      1.486186      0.000000
>
3
Coordinates from ORCA-job O3 Relaxed Surface Scan Step 39
  O      -0.015475      0.009571      0.000000
  O       1.619353     -0.006572      0.000000
  O       1.031131      1.488625      0.000000
>
3
Coordinates from ORCA-job O3 Relaxed Surface Scan Step 40
  O       0.129735      0.080327      0.000000
  O       1.539340      0.053669      0.000000
  O       0.997781      1.355320      0.000000
>
3
Coordinates from ORCA-job O3 Relaxed Surface Scan Step 41
  O       0.002339      0.013974      0.000000
  O       1.419373     -0.006210      0.000000
  O       0.831928      1.283414      0.000000
>
3
Coordinates from ORCA-job O3 Relaxed Surface Scan Step 42
  O       0.001729      0.013911      0.000000
  O       1.427285     -0.006399      0.000000
  O       0.799588      1.273614      0.000000
>
3
Coordinates from ORCA-job O3 Relaxed Surface Scan Step 43
  O       0.001082      0.013841      0.000000
  O       1.436474     -0.006615      0.000000
  O       0.767980      1.263716      0.000000
>
3
Coordinates from ORCA-job O3 Relaxed Surface Scan Step 44
  O       0.000246      0.013685      0.000000
  O       1.447201     -0.006937      0.000000
  O       0.737101      1.253928      0.000000
>
3
Coordinates from ORCA-job O3 Relaxed Surface Scan Step 45
  O      -0.000153      0.013796      0.000000
  O       1.459268     -0.007009      0.000000
  O       0.707093      1.243832      0.000000
>
3
Coordinates from ORCA-job O3 Relaxed Surface Scan Step 46
  O      -0.001300      0.013501      0.000000
  O       1.473055     -0.007530      0.000000
  O       0.677456      1.234022      0.000000
>
3
Coordinates from ORCA-job O3 Relaxed Surface Scan Step 47
  O      -0.002150      0.013426      0.000000
  O       1.489049     -0.007831      0.000000
  O       0.648884      1.224483      0.000000
>
3
Coordinates from ORCA-job O3 Relaxed Surface Scan Step 48
  O      -0.003170      0.013283      0.000000
  O       1.507212     -0.008241      0.000000
  O       0.621015      1.215171      0.000000
>
3
Coordinates from ORCA-job O3 Relaxed Surface Scan Step 49
  O      -0.004309      0.013111      0.000000
  O       1.527929     -0.008725      0.000000
  O       0.593911      1.206274      0.000000
>
3
Coordinates from ORCA-job O3 Relaxed Surface Scan Step 50
  O      -0.005582      0.012910      0.000000
  O       1.551571     -0.009285      0.000000
  O       0.567563      1.197942      0.000000
