
                                 *****************
                                 * O   R   C   A *
                                 *****************

                                            #,                                       
                                            ###                                      
                                            ####                                     
                                            #####                                    
                                            ######                                   
                                           ########,                                 
                                     ,,################,,,,,                         
                               ,,#################################,,                 
                          ,,##########################################,,             
                       ,#########################################, ''#####,          
                    ,#############################################,,   '####,        
                  ,##################################################,,,,####,       
                ,###########''''           ''''###############################       
              ,#####''   ,,,,##########,,,,          '''####'''          '####       
            ,##' ,,,,###########################,,,                        '##       
           ' ,,###''''                  '''############,,,                           
         ,,##''                                '''############,,,,        ,,,,,,###''
      ,#''                                            '''#######################'''  
     '                                                          ''''####''''         
             ,#######,   #######,   ,#######,      ##                                
            ,#'     '#,  ##    ##  ,#'     '#,    #''#        ######   ,####,        
            ##       ##  ##   ,#'  ##            #'  '#       #        #'  '#        
            ##       ##  #######   ##           ,######,      #####,   #    #        
            '#,     ,#'  ##    ##  '#,     ,#' ,#      #,         ##   #,  ,#        
             '#######'   ##     ##  '#######'  #'      '#     #####' # '####'        



                  #######################################################
                  #                        -***-                        #
                  #          Department of theory and spectroscopy      #
                  #    Directorship and core code : Frank Neese         #
                  #        Max Planck Institute fuer Kohlenforschung    #
                  #                Kaiser Wilhelm Platz 1               #
                  #                 D-45470 Muelheim/Ruhr               #
                  #                      Germany                        #
                  #                                                     #
                  #                  All rights reserved                #
                  #                        -***-                        #
                  #######################################################


                         Program Version 5.0.4 -  RELEASE  -


 With contributions from (in alphabetic order):
   Daniel Aravena         : Magnetic Suceptibility
   Michael Atanasov       : Ab Initio Ligand Field Theory (pilot matlab implementation)
   Alexander A. Auer      : GIAO ZORA, VPT2 properties, NMR spectrum
   Ute Becker             : Parallelization
   Giovanni Bistoni       : ED, misc. LED, open-shell LED, HFLD
   Martin Brehm           : Molecular dynamics
   Dmytro Bykov           : SCF Hessian
   Vijay G. Chilkuri      : MRCI spin determinant printing, contributions to CSF-ICE
   Dipayan Datta          : RHF DLPNO-CCSD density
   Achintya Kumar Dutta   : EOM-CC, STEOM-CC
   Dmitry Ganyushin       : Spin-Orbit,Spin-Spin,Magnetic field MRCI
   Miquel Garcia          : C-PCM and meta-GGA Hessian, CC/C-PCM, Gaussian charge scheme
   Yang Guo               : DLPNO-NEVPT2, F12-NEVPT2, CIM, IAO-localization
   Andreas Hansen         : Spin unrestricted coupled pair/coupled cluster methods
   Benjamin Helmich-Paris : MC-RPA, TRAH-SCF, COSX integrals
   Lee Huntington         : MR-EOM, pCC
   Robert Izsak           : Overlap fitted RIJCOSX, COSX-SCS-MP3, EOM
   Marcus Kettner         : VPT2
   Christian Kollmar      : KDIIS, OOCD, Brueckner-CCSD(T), CCSD density, CASPT2, CASPT2-K
   Simone Kossmann        : Meta GGA functionals, TD-DFT gradient, OOMP2, MP2 Hessian
   Martin Krupicka        : Initial AUTO-CI
   Lucas Lang             : DCDCAS
   Marvin Lechner         : AUTO-CI (C++ implementation), FIC-MRCC
   Dagmar Lenk            : GEPOL surface, SMD
   Dimitrios Liakos       : Extrapolation schemes; Compound Job, initial MDCI parallelization
   Dimitrios Manganas     : Further ROCIS development; embedding schemes
   Dimitrios Pantazis     : SARC Basis sets
   Anastasios Papadopoulos: AUTO-CI, single reference methods and gradients
   Taras Petrenko         : DFT Hessian,TD-DFT gradient, ASA, ECA, R-Raman, ABS, FL, XAS/XES, NRVS
   Peter Pinski           : DLPNO-MP2, DLPNO-MP2 Gradient
   Christoph Reimann      : Effective Core Potentials
   Marius Retegan         : Local ZFS, SOC
   Christoph Riplinger    : Optimizer, TS searches, QM/MM, DLPNO-CCSD(T), (RO)-DLPNO pert. Triples
   Tobias Risthaus        : Range-separated hybrids, TD-DFT gradient, RPA, STAB
   Michael Roemelt        : Original ROCIS implementation
   Masaaki Saitow         : Open-shell DLPNO-CCSD energy and density
   Barbara Sandhoefer     : DKH picture change effects
   Avijit Sen             : IP-ROCIS
   Kantharuban Sivalingam : CASSCF convergence, NEVPT2, FIC-MRCI
   Bernardo de Souza      : ESD, SOC TD-DFT
   Georgi Stoychev        : AutoAux, RI-MP2 NMR, DLPNO-MP2 response
   Willem Van den Heuvel  : Paramagnetic NMR
   Boris Wezisla          : Elementary symmetry handling
   Frank Wennmohs         : Technical directorship


 We gratefully acknowledge several colleagues who have allowed us to
 interface, adapt or use parts of their codes:
   Stefan Grimme, W. Hujo, H. Kruse, P. Pracht,  : VdW corrections, initial TS optimization,
                  C. Bannwarth, S. Ehlert          DFT functionals, gCP, sTDA/sTD-DF
   Ed Valeev, F. Pavosevic, A. Kumar             : LibInt (2-el integral package), F12 methods
   Garnet Chan, S. Sharma, J. Yang, R. Olivares  : DMRG
   Ulf Ekstrom                                   : XCFun DFT Library
   Mihaly Kallay                                 : mrcc  (arbitrary order and MRCC methods)
   Jiri Pittner, Ondrej Demel                    : Mk-CCSD
   Frank Weinhold                                : gennbo (NPA and NBO analysis)
   Christopher J. Cramer and Donald G. Truhlar   : smd solvation model
   Lars Goerigk                                  : TD-DFT with DH, B97 family of functionals
   V. Asgeirsson, H. Jonsson                     : NEB implementation
   FAccTs GmbH                                   : IRC, NEB, NEB-TS, DLPNO-Multilevel, CI-OPT
                                                   MM, QMMM, 2- and 3-layer-ONIOM, Crystal-QMMM,
                                                   LR-CPCM, SF, NACMEs, symmetry and pop. for TD-DFT,
                                                   nearIR, NL-DFT gradient (VV10), updates on ESD,
                                                   ML-optimized integration grids
   S Lehtola, MJT Oliveira, MAL Marques          : LibXC Library
   Liviu Ungur et al                             : ANISO software


 Your calculation uses the libint2 library for the computation of 2-el integrals
 For citations please refer to: http://libint.valeyev.net

 Your ORCA version has been built with support for libXC version: 5.1.0
 For citations please refer to: https://tddft.org/programs/libxc/

 This ORCA versions uses:
   CBLAS   interface :  Fast vector & matrix operations
   LAPACKE interface :  Fast linear algebra routines
   SCALAPACK package :  Parallel linear algebra routines
   Shared memory     :  Shared parallel matrices
   BLAS/LAPACK       :  OpenBLAS 0.3.15  USE64BITINT DYNAMIC_ARCH NO_AFFINITY Zen SINGLE_THREADED
        Core in use  :  Zen
   Copyright (c) 2011-2014, The OpenBLAS Project


================================================================================

----- Orbital basis set information -----
Your calculation utilizes the basis: def2-SVP
   F. Weigend and R. Ahlrichs, Phys. Chem. Chem. Phys. 7, 3297 (2005).

----- AuxJ basis set information -----
Your calculation utilizes the auxiliary basis: def2/J
   F. Weigend, Phys. Chem. Chem. Phys. 8, 1057 (2006).

================================================================================
                                        WARNINGS
                       Please study these warnings very carefully!
================================================================================


WARNING: Geometry Optimization
  ===> : Switching off AutoStart
         For restart on a previous wavefunction, please use MOREAD

INFO   : the flag for use of the SHARK integral package has been found!

================================================================================
                                       INPUT FILE
================================================================================
NAME = O3.inp
|  1> !B3LYP DEF2-SVP OPT
|  2> !Pal2
|  3> 
|  4> * int 0 1
|  5>    O     0     0     0        0.00000        0.00000        0.00000
|  6>    O     1     0     0        1.35200        0.00000        0.00000
|  7>    O     2     1     0        1.35200        111.400        0.00000
|  8> *
|  9> 
| 10> 
| 11>                          ****END OF INPUT****
================================================================================

                       *****************************
                       * Geometry Optimization Run *
                       *****************************

Geometry optimization settings:
Update method            Update   .... BFGS
Choice of coordinates    CoordSys .... Z-matrix Internals
Initial Hessian          InHess   .... Almoef's Model

Convergence Tolerances:
Energy Change            TolE     ....  5.0000e-06 Eh
Max. Gradient            TolMAXG  ....  3.0000e-04 Eh/bohr
RMS Gradient             TolRMSG  ....  1.0000e-04 Eh/bohr
Max. Displacement        TolMAXD  ....  4.0000e-03 bohr
RMS Displacement         TolRMSD  ....  2.0000e-03 bohr
Strict Convergence                ....  False
------------------------------------------------------------------------------
                        ORCA OPTIMIZATION COORDINATE SETUP
------------------------------------------------------------------------------

The optimization will be done in new redundant internal coordinates
Making redundant internal coordinates   ...  (new redundants) done
Evaluating the initial hessian          ...  (Almloef) done
Evaluating the coordinates              ...  done
Calculating the B-matrix                .... done
Calculating the G-matrix                .... done
Diagonalizing the G-matrix              .... done
The first mode is                       ....    0
The number of degrees of freedom        ....    3

    -----------------------------------------------------------------
                    Redundant Internal Coordinates


    -----------------------------------------------------------------
         Definition                    Initial Value    Approx d2E/dq
    -----------------------------------------------------------------
      1. B(O   1,O   0)                  1.3520         0.576287   
      2. B(O   2,O   1)                  1.3520         0.576287   
      3. A(O   0,O   1,O   2)          111.4000         0.411872   
    -----------------------------------------------------------------

Number of atoms                         .... 3
Number of degrees of freedom            .... 3

         *************************************************************
         *                GEOMETRY OPTIMIZATION CYCLE   1            *
         *************************************************************
---------------------------------
CARTESIAN COORDINATES (ANGSTROEM)
---------------------------------
  O      0.000000    0.000000    0.000000
  O      1.352000    0.000000    0.000000
  O      1.845313    1.258787    0.000000

----------------------------
CARTESIAN COORDINATES (A.U.)
----------------------------
  NO LB      ZA    FRAG     MASS         X           Y           Z
   0 O     8.0000    0    15.999    0.000000    0.000000    0.000000
   1 O     8.0000    0    15.999    2.554910    0.000000    0.000000
   2 O     8.0000    0    15.999    3.487137    2.378764    0.000000

--------------------------------
INTERNAL COORDINATES (ANGSTROEM)
--------------------------------
 O      0   0   0     0.000000000000     0.00000000     0.00000000
 O      1   0   0     1.352000000000     0.00000000     0.00000000
 O      2   1   0     1.352000000000   111.40000000     0.00000000

---------------------------
INTERNAL COORDINATES (A.U.)
---------------------------
 O      0   0   0     0.000000000000     0.00000000     0.00000000
 O      1   0   0     2.554909733062     0.00000000     0.00000000
 O      2   1   0     2.554909733062   111.40000000     0.00000000

---------------------
BASIS SET INFORMATION
---------------------
There are 1 groups of distinct atoms

 Group   1 Type O   : 7s4p1d contracted to 3s2p1d pattern {511/31/1}

Atom   0O    basis set group =>   1
Atom   1O    basis set group =>   1
Atom   2O    basis set group =>   1
---------------------------------
AUXILIARY/J BASIS SET INFORMATION
---------------------------------
There are 1 groups of distinct atoms

 Group   1 Type O   : 12s5p4d2f1g contracted to 6s4p3d1f1g pattern {711111/2111/211/2/1}

Atom   0O    basis set group =>   1
Atom   1O    basis set group =>   1
Atom   2O    basis set group =>   1


           ************************************************************
           *        Program running with 2 parallel MPI-processes     *
           *              working on a common directory               *
           ************************************************************
------------------------------------------------------------------------------
                           ORCA GTO INTEGRAL CALCULATION
                           -- RI-GTO INTEGRALS CHOSEN --
------------------------------------------------------------------------------
------------------------------------------------------------------------------
                   ___                                                        
                  /   \      - P O W E R E D   B Y -                         
                 /     \                                                     
                 |  |  |   _    _      __       _____    __    __             
                 |  |  |  | |  | |    /  \     |  _  \  |  |  /  |          
                  \  \/   | |  | |   /    \    | | | |  |  | /  /          
                 / \  \   | |__| |  /  /\  \   | |_| |  |  |/  /          
                |  |  |   |  __  | /  /__\  \  |    /   |      \           
                |  |  |   | |  | | |   __   |  |    \   |  |\   \          
                \     /   | |  | | |  |  |  |  | |\  \  |  | \   \       
                 \___/    |_|  |_| |__|  |__|  |_| \__\ |__|  \__/        
                                                                              
                      - O R C A' S   B I G   F R I E N D -                    
                                      &                                       
                       - I N T E G R A L  F E E D E R -                       
                                                                              
 v1 FN, 2020, v2 2021                                                         
------------------------------------------------------------------------------


Reading SHARK input file O3.SHARKINP.tmp ... ok
----------------------
SHARK INTEGRAL PACKAGE
----------------------

Number of atoms                             ...      3
Number of basis functions                   ...     42
Number of shells                            ...     18
Maximum angular momentum                    ...      2
Integral batch strategy                     ... SHARK/LIBINT Hybrid
RI-J (if used) integral strategy            ... SPLIT-RIJ (Revised 2003 algorithm where possible)
Printlevel                                  ...      1
Contraction scheme used                     ... SEGMENTED contraction
Coulomb Range Separation                    ... NOT USED
Exchange Range Separation                   ... NOT USED
Finite Nucleus Model                        ... NOT USED
Auxiliary Coulomb fitting basis             ... AVAILABLE
   # of basis functions in Aux-J            ...    147
   # of shells in Aux-J                     ...     45
   Maximum angular momentum in Aux-J        ...      4
Auxiliary J/K fitting basis                 ... NOT available
Auxiliary Correlation fitting basis         ... NOT available
Auxiliary 'external' fitting basis          ... NOT available
Integral threshold                          ...     2.500000e-11
Primitive cut-off                           ...     2.500000e-12
Primitive pair pre-selection threshold      ...     2.500000e-12

Calculating pre-screening integrals         ... done (  0.0 sec) Dimension = 18
Organizing shell pair data                  ... done (  0.0 sec)
Shell pair information
Total number of shell pairs                 ...       171
Shell pairs after pre-screening             ...       170
Total number of primitive shell pairs       ...       705
Primitive shell pairs kept                  ...       586
          la=0 lb=0:     44 shell pairs
          la=1 lb=0:     54 shell pairs
          la=1 lb=1:     21 shell pairs
          la=2 lb=0:     27 shell pairs
          la=2 lb=1:     18 shell pairs
          la=2 lb=2:      6 shell pairs

Calculating one electron integrals          ... done (  0.0 sec)
Calculating RI/J V-Matrix + Cholesky decomp.... done (  0.1 sec)
Calculating Nuclear repulsion               ... done (  0.0 sec) ENN=     65.261135567737 Eh

SHARK setup successfully completed in   0.5 seconds

Maximum memory used throughout the entire GTOINT-calculation: 8.9 MB


           ************************************************************
           *        Program running with 2 parallel MPI-processes     *
           *              working on a common directory               *
           ************************************************************
-------------------------------------------------------------------------------
                                 ORCA SCF
-------------------------------------------------------------------------------

------------
SCF SETTINGS
------------
Hamiltonian:
 Density Functional     Method          .... DFT(GTOs)
 Exchange Functional    Exchange        .... B88
   X-Alpha parameter    XAlpha          ....  0.666667
   Becke's b parameter  XBeta           ....  0.004200
 Correlation Functional Correlation     .... LYP
 LDA part of GGA corr.  LDAOpt          .... VWN-5
 Gradients option       PostSCFGGA      .... off
 Hybrid DFT is turned on
   Fraction HF Exchange ScalHFX         ....  0.200000
   Scaling of DF-GGA-X  ScalDFX         ....  0.720000
   Scaling of DF-GGA-C  ScalDFC         ....  0.810000
   Scaling of DF-LDA-C  ScalLDAC        ....  1.000000
   Perturbative correction              ....  0.000000
   Density functional embedding theory  .... OFF
   NL short-range parameter             ....  4.800000
 RI-approximation to the Coulomb term is turned on
   Number of AuxJ basis functions       .... 147
   RIJ-COSX (HFX calculated with COS-X)).... on


General Settings:
 Integral files         IntName         .... O3
 Hartree-Fock type      HFTyp           .... RHF
 Total Charge           Charge          ....    0
 Multiplicity           Mult            ....    1
 Number of Electrons    NEL             ....   24
 Basis Dimension        Dim             ....   42
 Nuclear Repulsion      ENuc            ....     65.2611355677 Eh

Convergence Acceleration:
 DIIS                   CNVDIIS         .... on
   Start iteration      DIISMaxIt       ....    12
   Startup error        DIISStart       ....  0.200000
   # of expansion vecs  DIISMaxEq       ....     5
   Bias factor          DIISBfac        ....   1.050
   Max. coefficient     DIISMaxC        ....  10.000
 Trust-Rad. Augm. Hess. CNVTRAH         .... auto
   Auto Start mean grad. ratio tolernc. ....  1.125000
   Auto Start start iteration           ....    20
   Auto Start num. interpolation iter.  ....    10
   Max. Number of Micro iterations      ....    16
   Max. Number of Macro iterations      .... Maxiter - #DIIS iter
   Number of Davidson start vectors     ....     2
   Converg. threshold I  (grad. norm)   ....   1.000e-05
   Converg. threshold II (energy diff.) ....   1.000e-08
   Grad. Scal. Fac. for Micro threshold ....   0.100
   Minimum threshold for Micro iter.    ....   0.010
   NR start threshold (gradient norm)   ....   0.001
   Initial trust radius                 ....   0.400
   Minimum AH scaling param. (alpha)    ....   1.000
   Maximum AH scaling param. (alpha)    .... 1000.000
   Orbital update algorithm             .... Taylor
   White noise on init. David. guess    .... on
   Maximum white noise                  ....   0.010
   Quad. conv. algorithm                .... NR
 SOSCF                  CNVSOSCF        .... on
   Start iteration      SOSCFMaxIt      ....   150
   Startup grad/error   SOSCFStart      ....  0.003300
 Level Shifting         CNVShift        .... on
   Level shift para.    LevelShift      ....    0.2500
   Turn off err/grad.   ShiftErr        ....    0.0010
 Zerner damping         CNVZerner       .... off
 Static damping         CNVDamp         .... on
   Fraction old density DampFac         ....    0.7000
   Max. Damping (<1)    DampMax         ....    0.9800
   Min. Damping (>=0)   DampMin         ....    0.0000
   Turn off err/grad.   DampErr         ....    0.1000
 Fernandez-Rico         CNVRico         .... off

SCF Procedure:
 Maximum # iterations   MaxIter         ....   125
 SCF integral mode      SCFMode         .... Direct
   Integral package                     .... SHARK and LIBINT hybrid scheme
 Reset frequency        DirectResetFreq ....    20
 Integral Threshold     Thresh          ....  2.500e-11 Eh
 Primitive CutOff       TCut            ....  2.500e-12 Eh

Convergence Tolerance:
 Convergence Check Mode ConvCheckMode   .... Total+1el-Energy
 Convergence forced     ConvForced      .... 0
 Energy Change          TolE            ....  1.000e-08 Eh
 1-El. energy change                    ....  1.000e-05 Eh
 Orbital Gradient       TolG            ....  1.000e-05
 Orbital Rotation angle TolX            ....  1.000e-05
 DIIS Error             TolErr          ....  5.000e-07


Diagonalization of the overlap matrix:
Smallest eigenvalue                        ... 1.732e-02
Time for diagonalization                   ...    0.043 sec
Threshold for overlap eigenvalues          ... 1.000e-08
Number of eigenvalues below threshold      ... 0
Time for construction of square roots      ...    0.001 sec
Total time needed                          ...    0.045 sec

Time for model grid setup =    0.092 sec

------------------------------
INITIAL GUESS: MODEL POTENTIAL
------------------------------
Loading Hartree-Fock densities                     ... done
Calculating cut-offs                               ... done
Initializing the effective Hamiltonian             ... done
Setting up the integral package (SHARK)            ... done
Starting the Coulomb interaction                   ... done (   0.1 sec)
Reading the grid                                   ... done
Mapping shells                                     ... done
Starting the XC term evaluation                    ... done (   0.0 sec)
  promolecular density results
     # of electrons  =     23.999969705
     EX              =    -24.429790755
     EC              =     -0.874253779
     EX+EC           =    -25.304044534
Transforming the Hamiltonian                       ... done (   0.0 sec)
Diagonalizing the Hamiltonian                      ... done (   0.0 sec)
Back transforming the eigenvectors                 ... done (   0.0 sec)
Now organizing SCF variables                       ... done
                      ------------------
                      INITIAL GUESS DONE (   0.2 sec)
                      ------------------
-------------------
DFT GRID GENERATION
-------------------

General Integration Accuracy     IntAcc      ... 4.388
Radial Grid Type                 RadialGrid  ... OptM3 with GC (2021)
Angular Grid (max. ang.)         AngularGrid ... 4 (Lebedev-302)
Angular grid pruning method      GridPruning ... 4 (adaptive)
Weight generation scheme         WeightScheme... Becke
Basis function cutoff            BFCut       ... 1.0000e-11
Integration weight cutoff        WCut        ... 1.0000e-14
Angular grids for H and He will be reduced by one unit
Partially contracted basis set               ... off
Rotationally invariant grid construction     ... off

Total number of grid points                  ...    18386
Total number of batches                      ...      289
Average number of points per batch           ...       63
Average number of grid points per atom       ...     6129
Time for grid setup =    0.128 sec

--------------------
COSX GRID GENERATION
--------------------

GRIDX 1
-------
General Integration Accuracy     IntAcc      ... 3.816
Radial Grid Type                 RadialGrid  ... OptM3 with GC (2021)
Angular Grid (max. ang.)         AngularGrid ... 1 (Lebedev-50)
Angular grid pruning method      GridPruning ... 4 (adaptive)
Weight generation scheme         WeightScheme... Becke
Basis function cutoff            BFCut       ... 1.0000e-11
Integration weight cutoff        WCut        ... 1.0000e-14
Angular grids for H and He will be reduced by one unit
Partially contracted basis set               ... on
Rotationally invariant grid construction     ... off

Total number of grid points                  ...     2307
Total number of batches                      ...       38
Average number of points per batch           ...       60
Average number of grid points per atom       ...      769
UseSFitting                                  ... on

GRIDX 2
-------
General Integration Accuracy     IntAcc      ... 4.020
Radial Grid Type                 RadialGrid  ... OptM3 with GC (2021)
Angular Grid (max. ang.)         AngularGrid ... 2 (Lebedev-110)
Angular grid pruning method      GridPruning ... 4 (adaptive)
Weight generation scheme         WeightScheme... Becke
Basis function cutoff            BFCut       ... 1.0000e-11
Integration weight cutoff        WCut        ... 1.0000e-14
Angular grids for H and He will be reduced by one unit
Partially contracted basis set               ... on
Rotationally invariant grid construction     ... off

Total number of grid points                  ...     5652
Total number of batches                      ...       90
Average number of points per batch           ...       62
Average number of grid points per atom       ...     1884
UseSFitting                                  ... on

GRIDX 3
-------
General Integration Accuracy     IntAcc      ... 4.338
Radial Grid Type                 RadialGrid  ... OptM3 with GC (2021)
Angular Grid (max. ang.)         AngularGrid ... 3 (Lebedev-194)
Angular grid pruning method      GridPruning ... 4 (adaptive)
Weight generation scheme         WeightScheme... Becke
Basis function cutoff            BFCut       ... 1.0000e-11
Integration weight cutoff        WCut        ... 1.0000e-14
Angular grids for H and He will be reduced by one unit
Partially contracted basis set               ... on
Rotationally invariant grid construction     ... off

Total number of grid points                  ...    12610
Total number of batches                      ...      198
Average number of points per batch           ...       63
Average number of grid points per atom       ...     4203
UseSFitting                                  ... on

Time for X-Grid setup             =    0.077 sec

--------------
SCF ITERATIONS
--------------
ITER       Energy         Delta-E        Max-DP      RMS-DP      [F,P]     Damp
               ***  Starting incremental Fock matrix formation  ***
  0   -224.9512521613   0.000000000000 0.13747806  0.00805154  0.3976452 0.7000
  1   -225.0444481492  -0.093195987899 0.05667477  0.00347824  0.0730940 0.7000
                               ***Turning on DIIS***
  2   -225.0603764738  -0.015928324564 0.06747052  0.00400836  0.0562794 0.0000
  3   -225.1193519146  -0.058975440863 0.01808366  0.00183396  0.0143125 0.0000
  4   -225.1194593789  -0.000107464251 0.01071668  0.00063187  0.0321502 0.0000
  5   -225.1203414932  -0.000882114332 0.00263865  0.00018017  0.0093930 0.0000
                      *** Initiating the SOSCF procedure ***
                           *** Shutting down DIIS ***
                      *** Re-Reading the Fockian *** 
                      *** Removing any level shift *** 
ITER      Energy       Delta-E        Grad      Rot      Max-DP    RMS-DP
  6   -225.12041884  -0.0000773496  0.000404  0.000404  0.000869  0.000063
               *** Restarting incremental Fock matrix formation ***
  7   -225.12041343   0.0000054098  0.000372  0.002648  0.002756  0.000139
  8   -225.12039680   0.0000166292  0.002293  0.002544  0.002420  0.000122
  9   -225.12041370  -0.0000168937  0.000345  0.001132  0.001467  0.000078
 10   -225.12040875   0.0000049428  0.001196  0.000880  0.001128  0.000060
 11   -225.12041424  -0.0000054821  0.000017  0.000013  0.000038  0.000003
 12   -225.12041424  -0.0000000011  0.000013  0.000006  0.000016  0.000001
                 **** Energy Check signals convergence ****
              ***Rediagonalizing the Fockian in SOSCF/NRSCF***

               *****************************************************
               *                     SUCCESS                       *
               *           SCF CONVERGED AFTER  13 CYCLES          *
               *****************************************************

Old exchange energy                            =     -4.832965086 Eh
New exchange energy                            =     -4.832962110 Eh
Exchange energy change after final integration =      0.000002976 Eh
Total energy after final integration           =   -225.120411263 Eh
Final COS-X integration done in                =     0.141 sec

----------------
TOTAL SCF ENERGY
----------------

Total Energy       :         -225.12041126 Eh           -6125.83782 eV

Components:
Nuclear Repulsion  :           65.26113557 Eh            1775.84578 eV
Electronic Energy  :         -290.38154683 Eh           -7901.68360 eV
One Electron Energy:         -438.54342396 Eh          -11933.37325 eV
Two Electron Energy:          148.16187713 Eh            4031.68964 eV
Max COSX asymmetry :            0.00000353 Eh               0.00010 eV

Virial components:
Potential Energy   :         -449.00029240 Eh          -12217.91910 eV
Kinetic Energy     :          223.87988114 Eh            6092.08128 eV
Virial Ratio       :            2.00554105


DFT components:
N(Alpha)           :       12.000003504110 electrons
N(Beta)            :       12.000003504110 electrons
N(Total)           :       24.000007008220 electrons
E(X)               :      -19.441205038523 Eh       
E(C)               :       -1.024240336321 Eh       
E(XC)              :      -20.465445374844 Eh       
DFET-embed. en.    :        0.000000000000 Eh       

---------------
SCF CONVERGENCE
---------------

  Last Energy change         ...   -8.8269e-10  Tolerance :   1.0000e-08
  Last MAX-Density change    ...    1.3323e-15  Tolerance :   1.0000e-07
  Last RMS-Density change    ...    9.1752e-17  Tolerance :   5.0000e-09
  Last Orbital Gradient      ...    2.5206e-07  Tolerance :   1.0000e-05
  Last Orbital Rotation      ...    2.4538e-07  Tolerance :   1.0000e-05

             **** THE GBW FILE WAS UPDATED (O3.gbw) ****
             **** DENSITY O3.scfp WAS UPDATED ****
             **** ENERGY FILE WAS UPDATED (O3.en.tmp) ****
             **** THE GBW FILE WAS UPDATED (O3.gbw) ****
             **** DENSITY O3.scfp WAS UPDATED ****
----------------
ORBITAL ENERGIES
----------------

  NO   OCC          E(Eh)            E(eV) 
   0   2.0000     -19.414536      -528.2964 
   1   2.0000     -19.254574      -523.9436 
   2   2.0000     -19.254428      -523.9396 
   3   2.0000      -1.282361       -34.8948 
   4   2.0000      -1.031608       -28.0715 
   5   2.0000      -0.789269       -21.4771 
   6   2.0000      -0.572527       -15.5792 
   7   2.0000      -0.562504       -15.3065 
   8   2.0000      -0.562195       -15.2981 
   9   2.0000      -0.355073        -9.6620 
  10   2.0000      -0.351158        -9.5555 
  11   2.0000      -0.339776        -9.2458 
  12   0.0000      -0.214352        -5.8328 
  13   0.0000       0.011401         0.3102 
  14   0.0000       0.063642         1.7318 
  15   0.0000       0.689312        18.7571 
  16   0.0000       0.784047        21.3350 
  17   0.0000       0.791518        21.5383 
  18   0.0000       0.792247        21.5581 
  19   0.0000       0.837236        22.7823 
  20   0.0000       0.915740        24.9186 
  21   0.0000       0.916356        24.9353 
  22   0.0000       0.960885        26.1470 
  23   0.0000       1.015556        27.6347 
  24   0.0000       1.062085        28.9008 
  25   0.0000       1.185917        32.2705 
  26   0.0000       1.222935        33.2777 
  27   0.0000       2.054213        55.8980 
  28   0.0000       2.081487        56.6401 
  29   0.0000       2.186037        59.4851 
  30   0.0000       2.376722        64.6739 
  31   0.0000       2.401210        65.3402 
  32   0.0000       2.554685        69.5165 
  33   0.0000       2.561143        69.6922 
  34   0.0000       2.577206        70.1293 
  35   0.0000       2.602835        70.8267 
  36   0.0000       2.685155        73.0668 
  37   0.0000       2.992932        81.4418 
  38   0.0000       3.058159        83.2167 
  39   0.0000       3.200247        87.0831 
  40   0.0000       3.606982        98.1510 
  41   0.0000       3.806759       103.5872 

                    ********************************
                    * MULLIKEN POPULATION ANALYSIS *
                    ********************************

-----------------------
MULLIKEN ATOMIC CHARGES
-----------------------
   0 O :   -0.080511
   1 O :    0.161059
   2 O :   -0.080548
Sum of atomic charges:   -0.0000000

--------------------------------
MULLIKEN REDUCED ORBITAL CHARGES
--------------------------------
  0 O s       :     3.945532  s :     3.945532
      pz      :     1.301192  p :     4.117017
      px      :     0.879284
      py      :     1.936541
      dz2     :     0.002734  d :     0.017962
      dxz     :     0.004164
      dyz     :     0.000009
      dx2y2   :     0.008333
      dxy     :     0.002722
  1 O s       :     3.862108  s :     3.862108
      pz      :     1.378292  p :     3.933763
      px      :     1.203531
      py      :     1.351940
      dz2     :     0.004513  d :     0.043070
      dxz     :     0.006402
      dyz     :     0.004524
      dx2y2   :     0.015886
      dxy     :     0.011746
  2 O s       :     3.945544  s :     3.945544
      pz      :     1.301244  p :     4.117042
      px      :     1.781799
      py      :     1.033999
      dz2     :     0.002734  d :     0.017963
      dxz     :     0.000586
      dyz     :     0.003587
      dx2y2   :     0.005655
      dxy     :     0.005401


                     *******************************
                     * LOEWDIN POPULATION ANALYSIS *
                     *******************************

----------------------
LOEWDIN ATOMIC CHARGES
----------------------
   0 O :   -0.122284
   1 O :    0.244597
   2 O :   -0.122312

-------------------------------
LOEWDIN REDUCED ORBITAL CHARGES
-------------------------------
  0 O s       :     3.811354  s :     3.811354
      pz      :     1.310202  p :     4.278575
      px      :     1.036103
      py      :     1.932270
      dz2     :     0.005585  d :     0.032355
      dxz     :     0.005592
      dyz     :     0.000012
      dx2y2   :     0.016822
      dxy     :     0.004344
  1 O s       :     3.641084  s :     3.641084
      pz      :     1.352765  p :     4.039102
      px      :     1.274357
      py      :     1.411980
      dz2     :     0.008428  d :     0.075217
      dxz     :     0.009656
      dyz     :     0.005916
      dx2y2   :     0.029366
      dxy     :     0.021851
  2 O s       :     3.811355  s :     3.811355
      pz      :     1.310254  p :     4.278602
      px      :     1.800599
      py      :     1.167749
      dz2     :     0.005585  d :     0.032356
      dxz     :     0.000799
      dyz     :     0.004805
      dx2y2   :     0.010982
      dxy     :     0.010185


                      *****************************
                      * MAYER POPULATION ANALYSIS *
                      *****************************

  NA   - Mulliken gross atomic population
  ZA   - Total nuclear charge
  QA   - Mulliken gross atomic charge
  VA   - Mayer's total valence
  BVA  - Mayer's bonded valence
  FA   - Mayer's free valence

  ATOM       NA         ZA         QA         VA         BVA        FA
  0 O      8.0805     8.0000    -0.0805     1.8749     1.8749    -0.0000
  1 O      7.8389     8.0000     0.1611     2.6390     2.6390     0.0000
  2 O      8.0805     8.0000    -0.0805     1.8749     1.8749    -0.0000

  Mayer bond orders larger than 0.100000
B(  0-O ,  1-O ) :   1.3195 B(  0-O ,  2-O ) :   0.5554 B(  1-O ,  2-O ) :   1.3195 


-------
TIMINGS
-------

Total SCF time: 0 days 0 hours 0 min 2 sec 

Total time                  ....       2.480 sec
Sum of individual times     ....       2.245 sec  ( 90.5%)

Fock matrix formation       ....       1.769 sec  ( 71.3%)
  Split-RI-J                ....       0.318 sec  ( 18.0% of F)
  Chain of spheres X        ....       0.999 sec  ( 56.5% of F)
  XC integration            ....       0.408 sec  ( 23.0% of F)
    Basis function eval.    ....       0.135 sec  ( 33.2% of XC)
    Density eval.           ....       0.088 sec  ( 21.7% of XC)
    XC-Functional eval.     ....       0.069 sec  ( 17.0% of XC)
    XC-Potential eval.      ....       0.059 sec  ( 14.5% of XC)
Diagonalization             ....       0.006 sec  (  0.2%)
Density matrix formation    ....       0.000 sec  (  0.0%)
Population analysis         ....       0.003 sec  (  0.1%)
Initial guess               ....       0.159 sec  (  6.4%)
Orbital Transformation      ....       0.000 sec  (  0.0%)
Orbital Orthonormalization  ....       0.000 sec  (  0.0%)
DIIS solution               ....       0.007 sec  (  0.3%)
SOSCF solution              ....       0.005 sec  (  0.2%)
Grid generation             ....       0.297 sec  ( 12.0%)

Maximum memory used throughout the entire SCF-calculation: 43.7 MB

-------------------------   --------------------
FINAL SINGLE POINT ENERGY      -225.120411262747
-------------------------   --------------------



           ************************************************************
           *        Program running with 2 parallel MPI-processes     *
           *              working on a common directory               *
           ************************************************************
------------------------------------------------------------------------------
                         ORCA SCF GRADIENT CALCULATION
------------------------------------------------------------------------------

 ... reading COSX grid (gridx3)
Gradient of the Kohn-Sham DFT energy:
Kohn-Sham wavefunction type      ... RKS
Hartree-Fock exchange scaling    ...    0.200
Number of operators              ...    1
Number of atoms                  ...    3
Basis set dimensions             ...   42
Integral neglect threshold       ... 2.5e-11
Integral primitive cutoff        ... 2.5e-12
SHARK Integral package           ... ON

Nuc. rep. gradient       (SHARK) ... done (  0.0 sec)
HCore & Overlap gradient (SHARK) ... done (  0.0 sec)
RI-J gradient            (SHARK) ... done (  0.3 sec)
COSX-gradient                    ... done (  0.2 sec)
Exchange-correlation gradient    ... done

------------------
CARTESIAN GRADIENT
------------------

   1   O   :   -0.078776627    0.014359716   -0.000000002
   2   O   :    0.063450770   -0.093090035    0.000000033
   3   O   :    0.015359191    0.078702301   -0.000000017

Difference to translation invariance:
           :    0.0000333344   -0.0000280188    0.0000000147

Difference to rotation invariance:
           :   -0.0000000398   -0.0000000267    0.0000731815

Norm of the cartesian gradient     ...    0.1597925848
RMS gradient                       ...    0.0532641949
MAX gradient                       ...    0.0930900354

-------
TIMINGS
-------

Total SCF gradient time            ...        0.833 sec

One electron gradient       ....       0.007 sec  (  0.8%)
RI-J Coulomb gradient       ....       0.312 sec  ( 37.4%)
COSX gradient               ....       0.248 sec  ( 29.8%)
XC gradient                 ....       0.125 sec  ( 15.0%)

Maximum memory used throughout the entire SCFGRAD-calculation: 33.3 MB
------------------------------------------------------------------------------
                         ORCA GEOMETRY RELAXATION STEP
------------------------------------------------------------------------------

Reading the OPT-File                    .... done
Getting information on internals        .... done
Copying old internal coords+grads       .... done
Making the new internal coordinates     .... (new redundants).... done
Validating the new internal coordinates .... (new redundants).... done
Calculating the B-matrix                .... done
Calculating the G,G- and P matrices     .... done
Transforming gradient to internals      .... done
Projecting the internal gradient        .... done
Number of atoms                         ....   3
Number of internal coordinates          ....   3
Current Energy                          ....  -225.120411263 Eh
Current gradient norm                   ....     0.159792585 Eh/bohr
Maximum allowed component of the step   ....  0.300
Current trust radius                    ....  0.300
Evaluating the initial hessian          ....  (Almloef) done
Projecting the Hessian                  .... done
Forming the augmented Hessian           .... done
Diagonalizing the augmented Hessian     .... done
Last element of RFO vector              ....  0.979805393
Lowest eigenvalues of augmented Hessian:
 -0.023820070  0.414626100  0.576287175
Length of the computed step             ....  0.204074684
The final length of the internal step   ....  0.204074684
Converting the step to cartesian space:
 Initial RMS(Int)=    0.1178225735
Transforming coordinates:
 Iter   0:  RMS(Cart)=    0.0497784957 RMS(Int)=    0.1171618183
 Iter   1:  RMS(Cart)=    0.0026370536 RMS(Int)=    0.0034560122
 Iter   2:  RMS(Cart)=    0.0001483695 RMS(Int)=    0.0002264912
 Iter   3:  RMS(Cart)=    0.0000032541 RMS(Int)=    0.0000065233
 Iter   4:  RMS(Cart)=    0.0000001423 RMS(Int)=    0.0000001887
 Iter   5:  RMS(Cart)=    0.0000000116 RMS(Int)=    0.0000000166
done
Storing new coordinates                 .... done

                                .--------------------.
          ----------------------|Geometry convergence|-------------------------
          Item                value                   Tolerance       Converged
          ---------------------------------------------------------------------
          RMS gradient        0.0677835821            0.0001000000      NO
          MAX gradient        0.0788730658            0.0003000000      NO
          RMS step            0.1178225735            0.0020000000      NO
          MAX step            0.1314316174            0.0040000000      NO
          ........................................................
          Max(Bonds)      0.0696      Max(Angles)    4.84
          Max(Dihed)        0.00      Max(Improp)    0.00
          ---------------------------------------------------------------------

The optimization has not yet converged - more geometry cycles are needed


    ---------------------------------------------------------------------------
                         Redundant Internal Coordinates
                            (Angstroem and degrees)

        Definition                    Value    dE/dq     Step     New-Value
    ----------------------------------------------------------------------------
     1. B(O   1,O   0)                1.3520  0.078800 -0.0695    1.2825   
     2. B(O   2,O   1)                1.3520  0.078873 -0.0696    1.2824   
     3. A(O   0,O   1,O   2)          111.40 -0.036790    4.84    116.24   
    ----------------------------------------------------------------------------

         *************************************************************
         *                GEOMETRY OPTIMIZATION CYCLE   2            *
         *************************************************************
---------------------------------
CARTESIAN COORDINATES (ANGSTROEM)
---------------------------------
  O      0.038889   -0.007573    0.000000
  O      1.320260    0.046569    0.000000
  O      1.838165    1.219791    0.000000

----------------------------
CARTESIAN COORDINATES (A.U.)
----------------------------
  NO LB      ZA    FRAG     MASS         X           Y           Z
   0 O     8.0000    0    15.999    0.073489   -0.014311    0.000000
   1 O     8.0000    0    15.999    2.494929    0.088003    0.000000
   2 O     8.0000    0    15.999    3.473629    2.305072    0.000000

--------------------------------
INTERNAL COORDINATES (ANGSTROEM)
--------------------------------
 O      0   0   0     0.000000000000     0.00000000     0.00000000
 O      1   0   0     1.282514024529     0.00000000     0.00000000
 O      2   1   0     1.282449384030   116.23802758     0.00000000

---------------------------
INTERNAL COORDINATES (A.U.)
---------------------------
 O      0   0   0     0.000000000000     0.00000000     0.00000000
 O      1   0   0     2.423600269272     0.00000000     0.00000000
 O      2   1   0     2.423478116433   116.23802758     0.00000000



           ************************************************************
           *        Program running with 2 parallel MPI-processes     *
           *              working on a common directory               *
           ************************************************************
------------------------------------------------------------------------------
                   ___                                                        
                  /   \      - P O W E R E D   B Y -                         
                 /     \                                                     
                 |  |  |   _    _      __       _____    __    __             
                 |  |  |  | |  | |    /  \     |  _  \  |  |  /  |          
                  \  \/   | |  | |   /    \    | | | |  |  | /  /          
                 / \  \   | |__| |  /  /\  \   | |_| |  |  |/  /          
                |  |  |   |  __  | /  /__\  \  |    /   |      \           
                |  |  |   | |  | | |   __   |  |    \   |  |\   \          
                \     /   | |  | | |  |  |  |  | |\  \  |  | \   \       
                 \___/    |_|  |_| |__|  |__|  |_| \__\ |__|  \__/        
                                                                              
                      - O R C A' S   B I G   F R I E N D -                    
                                      &                                       
                       - I N T E G R A L  F E E D E R -                       
                                                                              
 v1 FN, 2020, v2 2021                                                         
------------------------------------------------------------------------------


Reading SHARK input file O3.SHARKINP.tmp ... ok
----------------------
SHARK INTEGRAL PACKAGE
----------------------

Number of atoms                             ...      3
Number of basis functions                   ...     42
Number of shells                            ...     18
Maximum angular momentum                    ...      2
Integral batch strategy                     ... SHARK/LIBINT Hybrid
RI-J (if used) integral strategy            ... SPLIT-RIJ (Revised 2003 algorithm where possible)
Printlevel                                  ...      1
Contraction scheme used                     ... SEGMENTED contraction
Coulomb Range Separation                    ... NOT USED
Exchange Range Separation                   ... NOT USED
Finite Nucleus Model                        ... NOT USED
Auxiliary Coulomb fitting basis             ... AVAILABLE
   # of basis functions in Aux-J            ...    147
   # of shells in Aux-J                     ...     45
   Maximum angular momentum in Aux-J        ...      4
Auxiliary J/K fitting basis                 ... NOT available
Auxiliary Correlation fitting basis         ... NOT available
Auxiliary 'external' fitting basis          ... NOT available
Integral threshold                          ...     2.500000e-11
Primitive cut-off                           ...     2.500000e-12
Primitive pair pre-selection threshold      ...     2.500000e-12

Calculating pre-screening integrals         ... done (  0.0 sec) Dimension = 18
Organizing shell pair data                  ... done (  0.0 sec)
Shell pair information
Total number of shell pairs                 ...       171
Shell pairs after pre-screening             ...       170
Total number of primitive shell pairs       ...       705
Primitive shell pairs kept                  ...       594
          la=0 lb=0:     44 shell pairs
          la=1 lb=0:     54 shell pairs
          la=1 lb=1:     21 shell pairs
          la=2 lb=0:     27 shell pairs
          la=2 lb=1:     18 shell pairs
          la=2 lb=2:      6 shell pairs

Calculating one electron integrals          ... done (  0.0 sec)
Calculating RI/J V-Matrix + Cholesky decomp.... done (  0.0 sec)
Calculating Nuclear repulsion               ... done (  0.0 sec) ENN=     68.364843058838 Eh

SHARK setup successfully completed in   0.1 seconds

Maximum memory used throughout the entire GTOINT-calculation: 8.9 MB


           ************************************************************
           *        Program running with 2 parallel MPI-processes     *
           *              working on a common directory               *
           ************************************************************

Diagonalization of the overlap matrix:
Smallest eigenvalue                        ... 1.355e-02
Time for diagonalization                   ...    0.000 sec
Threshold for overlap eigenvalues          ... 1.000e-08
Number of eigenvalues below threshold      ... 0
Time for construction of square roots      ...    0.000 sec
Total time needed                          ...    0.001 sec

-------------------
DFT GRID GENERATION
-------------------

General Integration Accuracy     IntAcc      ... 4.388
Radial Grid Type                 RadialGrid  ... OptM3 with GC (2021)
Angular Grid (max. ang.)         AngularGrid ... 4 (Lebedev-302)
Angular grid pruning method      GridPruning ... 4 (adaptive)
Weight generation scheme         WeightScheme... Becke
Basis function cutoff            BFCut       ... 1.0000e-11
Integration weight cutoff        WCut        ... 1.0000e-14
Angular grids for H and He will be reduced by one unit
Partially contracted basis set               ... off
Rotationally invariant grid construction     ... off

Total number of grid points                  ...    18380
Total number of batches                      ...      289
Average number of points per batch           ...       63
Average number of grid points per atom       ...     6127
Time for grid setup =    0.092 sec

--------------------
COSX GRID GENERATION
--------------------

GRIDX 1
-------
General Integration Accuracy     IntAcc      ... 3.816
Radial Grid Type                 RadialGrid  ... OptM3 with GC (2021)
Angular Grid (max. ang.)         AngularGrid ... 1 (Lebedev-50)
Angular grid pruning method      GridPruning ... 4 (adaptive)
Weight generation scheme         WeightScheme... Becke
Basis function cutoff            BFCut       ... 1.0000e-11
Integration weight cutoff        WCut        ... 1.0000e-14
Angular grids for H and He will be reduced by one unit
Partially contracted basis set               ... on
Rotationally invariant grid construction     ... off

Total number of grid points                  ...     2307
Total number of batches                      ...       38
Average number of points per batch           ...       60
Average number of grid points per atom       ...      769
UseSFitting                                  ... on

GRIDX 2
-------
General Integration Accuracy     IntAcc      ... 4.020
Radial Grid Type                 RadialGrid  ... OptM3 with GC (2021)
Angular Grid (max. ang.)         AngularGrid ... 2 (Lebedev-110)
Angular grid pruning method      GridPruning ... 4 (adaptive)
Weight generation scheme         WeightScheme... Becke
Basis function cutoff            BFCut       ... 1.0000e-11
Integration weight cutoff        WCut        ... 1.0000e-14
Angular grids for H and He will be reduced by one unit
Partially contracted basis set               ... on
Rotationally invariant grid construction     ... off

Total number of grid points                  ...     5649
Total number of batches                      ...       90
Average number of points per batch           ...       62
Average number of grid points per atom       ...     1883
UseSFitting                                  ... on

GRIDX 3
-------
General Integration Accuracy     IntAcc      ... 4.338
Radial Grid Type                 RadialGrid  ... OptM3 with GC (2021)
Angular Grid (max. ang.)         AngularGrid ... 3 (Lebedev-194)
Angular grid pruning method      GridPruning ... 4 (adaptive)
Weight generation scheme         WeightScheme... Becke
Basis function cutoff            BFCut       ... 1.0000e-11
Integration weight cutoff        WCut        ... 1.0000e-14
Angular grids for H and He will be reduced by one unit
Partially contracted basis set               ... on
Rotationally invariant grid construction     ... off

Total number of grid points                  ...    12602
Total number of batches                      ...      198
Average number of points per batch           ...       63
Average number of grid points per atom       ...     4201
UseSFitting                                  ... on

Time for X-Grid setup             =    0.070 sec

--------------
SCF ITERATIONS
--------------
ITER       Energy         Delta-E        Max-DP      RMS-DP      [F,P]     Damp
               ***  Starting incremental Fock matrix formation  ***
  0   -225.1294611926   0.000000000000 0.00813434  0.00087024  0.0381678 0.7000
  1   -225.1317320706  -0.002270877986 0.00718492  0.00078070  0.0260644 0.7000
                               ***Turning on DIIS***
  2   -225.1334314368  -0.001699366207 0.01821050  0.00202194  0.0176548 0.0000
                      *** Initiating the SOSCF procedure ***
                           *** Shutting down DIIS ***
                      *** Re-Reading the Fockian *** 
                      *** Removing any level shift *** 
ITER      Energy       Delta-E        Grad      Rot      Max-DP    RMS-DP
  3   -225.13762835  -0.0041969104  0.001754  0.001754  0.004122  0.000341
               *** Restarting incremental Fock matrix formation ***
  4   -225.13767208  -0.0000437340  0.000893  0.001503  0.002456  0.000196
  5   -225.13767248  -0.0000003948  0.001255  0.001302  0.001676  0.000096
  6   -225.13767820  -0.0000057236  0.000563  0.000481  0.001097  0.000086
  7   -225.13767928  -0.0000010793  0.000398  0.000409  0.000658  0.000044
  8   -225.13768004  -0.0000007642  0.000290  0.001022  0.001136  0.000062
  9   -225.13767797   0.0000020732  0.000729  0.000727  0.000897  0.000051
 10   -225.13768030  -0.0000023265  0.000010  0.000007  0.000012  0.000001
 11   -225.13768030  -0.0000000006  0.000003  0.000002  0.000002  0.000000
                 **** Energy Check signals convergence ****
              ***Rediagonalizing the Fockian in SOSCF/NRSCF***

               *****************************************************
               *                     SUCCESS                       *
               *           SCF CONVERGED AFTER  12 CYCLES          *
               *****************************************************

Old exchange energy                            =     -4.855953981 Eh
New exchange energy                            =     -4.855956779 Eh
Exchange energy change after final integration =     -0.000002798 Eh
Total energy after final integration           =   -225.137683095 Eh
Final COS-X integration done in                =     0.142 sec
Total Energy       :         -225.13768309 Eh           -6126.30781 eV
  Last Energy change         ...   -1.6684e-11  Tolerance :   1.0000e-08
  Last MAX-Density change    ...    1.3323e-15  Tolerance :   1.0000e-07
             **** THE GBW FILE WAS UPDATED (O3.gbw) ****
             **** DENSITY O3.scfp WAS UPDATED ****
             **** ENERGY FILE WAS UPDATED (O3.en.tmp) ****
             **** THE GBW FILE WAS UPDATED (O3.gbw) ****
             **** DENSITY O3.scfp WAS UPDATED ****
Total SCF time: 0 days 0 hours 0 min 1 sec 

Maximum memory used throughout the entire SCF-calculation: 43.7 MB

-------------------------   --------------------
FINAL SINGLE POINT ENERGY      -225.137683094954
-------------------------   --------------------



           ************************************************************
           *        Program running with 2 parallel MPI-processes     *
           *              working on a common directory               *
           ************************************************************
------------------------------------------------------------------------------
                         ORCA SCF GRADIENT CALCULATION
------------------------------------------------------------------------------

 ... reading COSX grid (gridx3)
Gradient of the Kohn-Sham DFT energy:
Kohn-Sham wavefunction type      ... RKS
Hartree-Fock exchange scaling    ...    0.200
Number of operators              ...    1
Number of atoms                  ...    3
Basis set dimensions             ...   42
Integral neglect threshold       ... 2.5e-11
Integral primitive cutoff        ... 2.5e-12
SHARK Integral package           ... ON

Nuc. rep. gradient       (SHARK) ... done (  0.0 sec)
HCore & Overlap gradient (SHARK) ... done (  0.0 sec)
RI-J gradient            (SHARK) ... done (  0.1 sec)
COSX-gradient                    ... done (  0.2 sec)
Exchange-correlation gradient    ... done

------------------
CARTESIAN GRADIENT
------------------

   1   O   :   -0.032464595    0.003664180   -0.000000000
   2   O   :    0.024028333   -0.035246202    0.000000002
   3   O   :    0.008482862    0.031546880   -0.000000002

Difference to translation invariance:
           :    0.0000465994   -0.0000351419   -0.0000000000

Difference to rotation invariance:
           :   -0.0000000037    0.0000000017   -0.0002181340

Norm of the cartesian gradient     ...    0.0628824009
RMS gradient                       ...    0.0209608003
MAX gradient                       ...    0.0352462025

-------
TIMINGS
-------

Total SCF gradient time            ...        0.428 sec

One electron gradient       ....       0.003 sec  (  0.6%)
RI-J Coulomb gradient       ....       0.053 sec  ( 12.4%)
COSX gradient               ....       0.173 sec  ( 40.4%)
XC gradient                 ....       0.091 sec  ( 21.2%)

Maximum memory used throughout the entire SCFGRAD-calculation: 33.3 MB
------------------------------------------------------------------------------
                         ORCA GEOMETRY RELAXATION STEP
------------------------------------------------------------------------------

Reading the OPT-File                    .... done
Getting information on internals        .... done
Copying old internal coords+grads       .... done
Making the new internal coordinates     .... (new redundants).... done
Validating the new internal coordinates .... (new redundants).... done
Calculating the B-matrix                .... done
Calculating the G,G- and P matrices     .... done
Transforming gradient to internals      .... done
Projecting the internal gradient        .... done
Number of atoms                         ....   3
Number of internal coordinates          ....   3
Current Energy                          ....  -225.137683095 Eh
Current gradient norm                   ....     0.062882401 Eh/bohr
Maximum allowed component of the step   ....  0.300
Current trust radius                    ....  0.300
Updating the Hessian (BFGS)             .... done
Forming the augmented Hessian           .... done
Diagonalizing the augmented Hessian     .... done
Last element of RFO vector              ....  0.991277010
Lowest eigenvalues of augmented Hessian:
 -0.006260509  0.343231386  0.441230531
Length of the computed step             ....  0.132954637
The final length of the internal step   ....  0.132954637
Converting the step to cartesian space:
 Initial RMS(Int)=    0.0767613955
Transforming coordinates:
 Iter   0:  RMS(Cart)=    0.0334211763 RMS(Int)=    0.0766106429
 Iter   1:  RMS(Cart)=    0.0008605299 RMS(Int)=    0.0011574249
 Iter   2:  RMS(Cart)=    0.0000351422 RMS(Int)=    0.0000498122
 Iter   3:  RMS(Cart)=    0.0000008634 RMS(Int)=    0.0000012955
 Iter   4:  RMS(Cart)=    0.0000000143 RMS(Int)=    0.0000000234
done
Storing new coordinates                 .... done

                                .--------------------.
          ----------------------|Geometry convergence|-------------------------
          Item                value                   Tolerance       Converged
          ---------------------------------------------------------------------
          Energy change      -0.0172718322            0.0000050000      NO
          RMS gradient        0.0272871753            0.0001000000      NO
          MAX gradient        0.0322985446            0.0003000000      NO
          RMS step            0.0767613955            0.0020000000      NO
          MAX step            0.0884383063            0.0040000000      NO
          ........................................................
          Max(Bonds)      0.0468      Max(Angles)    2.59
          Max(Dihed)        0.00      Max(Improp)    0.00
          ---------------------------------------------------------------------

The optimization has not yet converged - more geometry cycles are needed


    ---------------------------------------------------------------------------
                         Redundant Internal Coordinates
                            (Angstroem and degrees)

        Definition                    Value    dE/dq     Step     New-Value
    ----------------------------------------------------------------------------
     1. B(O   1,O   0)                1.2825  0.032288 -0.0468    1.2357   
     2. B(O   2,O   1)                1.2824  0.032299 -0.0468    1.2356   
     3. A(O   0,O   1,O   2)          116.24 -0.012169    2.59    118.83   
    ----------------------------------------------------------------------------

         *************************************************************
         *                GEOMETRY OPTIMIZATION CYCLE   3            *
         *************************************************************
---------------------------------
CARTESIAN COORDINATES (ANGSTROEM)
---------------------------------
  O      0.068882   -0.006709    0.000000
  O      1.302017    0.073321    0.000000
  O      1.826415    1.192176    0.000000

----------------------------
CARTESIAN COORDINATES (A.U.)
----------------------------
  NO LB      ZA    FRAG     MASS         X           Y           Z
   0 O     8.0000    0    15.999    0.130167   -0.012679    0.000000
   1 O     8.0000    0    15.999    2.460455    0.138556    0.000000
   2 O     8.0000    0    15.999    3.451424    2.252886    0.000000

--------------------------------
INTERNAL COORDINATES (ANGSTROEM)
--------------------------------
 O      0   0   0     0.000000000000     0.00000000     0.00000000
 O      1   0   0     1.235729305671     0.00000000     0.00000000
 O      2   1   0     1.235649848171   118.82537409     0.00000000

---------------------------
INTERNAL COORDINATES (A.U.)
---------------------------
 O      0   0   0     0.000000000000     0.00000000     0.00000000
 O      1   0   0     2.335189963379     0.00000000     0.00000000
 O      2   1   0     2.335039810464   118.82537409     0.00000000



           ************************************************************
           *        Program running with 2 parallel MPI-processes     *
           *              working on a common directory               *
           ************************************************************
------------------------------------------------------------------------------
                   ___                                                        
                  /   \      - P O W E R E D   B Y -                         
                 /     \                                                     
                 |  |  |   _    _      __       _____    __    __             
                 |  |  |  | |  | |    /  \     |  _  \  |  |  /  |          
                  \  \/   | |  | |   /    \    | | | |  |  | /  /          
                 / \  \   | |__| |  /  /\  \   | |_| |  |  |/  /          
                |  |  |   |  __  | /  /__\  \  |    /   |      \           
                |  |  |   | |  | | |   __   |  |    \   |  |\   \          
                \     /   | |  | | |  |  |  |  | |\  \  |  | \   \       
                 \___/    |_|  |_| |__|  |__|  |_| \__\ |__|  \__/        
                                                                              
                      - O R C A' S   B I G   F R I E N D -                    
                                      &                                       
                       - I N T E G R A L  F E E D E R -                       
                                                                              
 v1 FN, 2020, v2 2021                                                         
------------------------------------------------------------------------------


Reading SHARK input file O3.SHARKINP.tmp ... ok
----------------------
SHARK INTEGRAL PACKAGE
----------------------

Number of atoms                             ...      3
Number of basis functions                   ...     42
Number of shells                            ...     18
Maximum angular momentum                    ...      2
Integral batch strategy                     ... SHARK/LIBINT Hybrid
RI-J (if used) integral strategy            ... SPLIT-RIJ (Revised 2003 algorithm where possible)
Printlevel                                  ...      1
Contraction scheme used                     ... SEGMENTED contraction
Coulomb Range Separation                    ... NOT USED
Exchange Range Separation                   ... NOT USED
Finite Nucleus Model                        ... NOT USED
Auxiliary Coulomb fitting basis             ... AVAILABLE
   # of basis functions in Aux-J            ...    147
   # of shells in Aux-J                     ...     45
   Maximum angular momentum in Aux-J        ...      4
Auxiliary J/K fitting basis                 ... NOT available
Auxiliary Correlation fitting basis         ... NOT available
Auxiliary 'external' fitting basis          ... NOT available
Integral threshold                          ...     2.500000e-11
Primitive cut-off                           ...     2.500000e-12
Primitive pair pre-selection threshold      ...     2.500000e-12

Calculating pre-screening integrals         ... done (  0.0 sec) Dimension = 18
Organizing shell pair data                  ... done (  0.0 sec)
Shell pair information
Total number of shell pairs                 ...       171
Shell pairs after pre-screening             ...       170
Total number of primitive shell pairs       ...       705
Primitive shell pairs kept                  ...       594
          la=0 lb=0:     44 shell pairs
          la=1 lb=0:     54 shell pairs
          la=1 lb=1:     21 shell pairs
          la=2 lb=0:     27 shell pairs
          la=2 lb=1:     18 shell pairs
          la=2 lb=2:      6 shell pairs

Calculating one electron integrals          ... done (  0.0 sec)
Calculating RI/J V-Matrix + Cholesky decomp.... done (  0.0 sec)
Calculating Nuclear repulsion               ... done (  0.0 sec) ENN=     70.734146357191 Eh

SHARK setup successfully completed in   0.1 seconds

Maximum memory used throughout the entire GTOINT-calculation: 8.9 MB


           ************************************************************
           *        Program running with 2 parallel MPI-processes     *
           *              working on a common directory               *
           ************************************************************

Diagonalization of the overlap matrix:
Smallest eigenvalue                        ... 1.133e-02
Time for diagonalization                   ...    0.000 sec
Threshold for overlap eigenvalues          ... 1.000e-08
Number of eigenvalues below threshold      ... 0
Time for construction of square roots      ...    0.000 sec
Total time needed                          ...    0.001 sec

-------------------
DFT GRID GENERATION
-------------------

General Integration Accuracy     IntAcc      ... 4.388
Radial Grid Type                 RadialGrid  ... OptM3 with GC (2021)
Angular Grid (max. ang.)         AngularGrid ... 4 (Lebedev-302)
Angular grid pruning method      GridPruning ... 4 (adaptive)
Weight generation scheme         WeightScheme... Becke
Basis function cutoff            BFCut       ... 1.0000e-11
Integration weight cutoff        WCut        ... 1.0000e-14
Angular grids for H and He will be reduced by one unit
Partially contracted basis set               ... off
Rotationally invariant grid construction     ... off

Total number of grid points                  ...    18377
Total number of batches                      ...      289
Average number of points per batch           ...       63
Average number of grid points per atom       ...     6126
Time for grid setup =    0.091 sec

--------------------
COSX GRID GENERATION
--------------------

GRIDX 1
-------
General Integration Accuracy     IntAcc      ... 3.816
Radial Grid Type                 RadialGrid  ... OptM3 with GC (2021)
Angular Grid (max. ang.)         AngularGrid ... 1 (Lebedev-50)
Angular grid pruning method      GridPruning ... 4 (adaptive)
Weight generation scheme         WeightScheme... Becke
Basis function cutoff            BFCut       ... 1.0000e-11
Integration weight cutoff        WCut        ... 1.0000e-14
Angular grids for H and He will be reduced by one unit
Partially contracted basis set               ... on
Rotationally invariant grid construction     ... off

Total number of grid points                  ...     2306
Total number of batches                      ...       38
Average number of points per batch           ...       60
Average number of grid points per atom       ...      769
UseSFitting                                  ... on

GRIDX 2
-------
General Integration Accuracy     IntAcc      ... 4.020
Radial Grid Type                 RadialGrid  ... OptM3 with GC (2021)
Angular Grid (max. ang.)         AngularGrid ... 2 (Lebedev-110)
Angular grid pruning method      GridPruning ... 4 (adaptive)
Weight generation scheme         WeightScheme... Becke
Basis function cutoff            BFCut       ... 1.0000e-11
Integration weight cutoff        WCut        ... 1.0000e-14
Angular grids for H and He will be reduced by one unit
Partially contracted basis set               ... on
Rotationally invariant grid construction     ... off

Total number of grid points                  ...     5647
Total number of batches                      ...       90
Average number of points per batch           ...       62
Average number of grid points per atom       ...     1882
UseSFitting                                  ... on

GRIDX 3
-------
General Integration Accuracy     IntAcc      ... 4.338
Radial Grid Type                 RadialGrid  ... OptM3 with GC (2021)
Angular Grid (max. ang.)         AngularGrid ... 3 (Lebedev-194)
Angular grid pruning method      GridPruning ... 4 (adaptive)
Weight generation scheme         WeightScheme... Becke
Basis function cutoff            BFCut       ... 1.0000e-11
Integration weight cutoff        WCut        ... 1.0000e-14
Angular grids for H and He will be reduced by one unit
Partially contracted basis set               ... on
Rotationally invariant grid construction     ... off

Total number of grid points                  ...    12599
Total number of batches                      ...      198
Average number of points per batch           ...       63
Average number of grid points per atom       ...     4200
UseSFitting                                  ... on

Time for X-Grid setup             =    0.071 sec

--------------
SCF ITERATIONS
--------------
ITER       Energy         Delta-E        Max-DP      RMS-DP      [F,P]     Damp
               ***  Starting incremental Fock matrix formation  ***
  0   -225.1356255406   0.000000000000 0.00601262  0.00061261  0.0278713 0.7000
  1   -225.1367151528  -0.001089612230 0.00526445  0.00053604  0.0189666 0.7000
                               ***Turning on DIIS***
  2   -225.1375163127  -0.000801159840 0.01330282  0.00136483  0.0127433 0.0000
                      *** Initiating the SOSCF procedure ***
                           *** Shutting down DIIS ***
                      *** Re-Reading the Fockian *** 
                      *** Removing any level shift *** 
ITER      Energy       Delta-E        Grad      Rot      Max-DP    RMS-DP
  3   -225.13947406  -0.0019577443  0.001365  0.001365  0.003007  0.000234
               *** Restarting incremental Fock matrix formation ***
  4   -225.13949175  -0.0000176885  0.000560  0.000436  0.001047  0.000103
  5   -225.13949326  -0.0000015182  0.000452  0.000197  0.000542  0.000042
  6   -225.13949427  -0.0000010067  0.000087  0.000180  0.000285  0.000014
  7   -225.13949418   0.0000000925  0.000172  0.000117  0.000188  0.000010
  8   -225.13949430  -0.0000001190  0.000032  0.000154  0.000155  0.000008
  9   -225.13949425   0.0000000492  0.000124  0.000122  0.000123  0.000007
                  ***Gradient check signals convergence***
              ***Rediagonalizing the Fockian in SOSCF/NRSCF***

               *****************************************************
               *                     SUCCESS                       *
               *           SCF CONVERGED AFTER  10 CYCLES          *
               *****************************************************

Old exchange energy                            =     -4.873663616 Eh
New exchange energy                            =     -4.873674701 Eh
Exchange energy change after final integration =     -0.000011085 Eh
Total energy after final integration           =   -225.139505385 Eh
Final COS-X integration done in                =     0.122 sec
Total Energy       :         -225.13950539 Eh           -6126.35740 eV
  Last Energy change         ...   -5.2430e-08  Tolerance :   1.0000e-08
  Last MAX-Density change    ...    2.6645e-15  Tolerance :   1.0000e-07
             **** THE GBW FILE WAS UPDATED (O3.gbw) ****
             **** DENSITY O3.scfp WAS UPDATED ****
             **** ENERGY FILE WAS UPDATED (O3.en.tmp) ****
             **** THE GBW FILE WAS UPDATED (O3.gbw) ****
             **** DENSITY O3.scfp WAS UPDATED ****
Total SCF time: 0 days 0 hours 0 min 1 sec 

Maximum memory used throughout the entire SCF-calculation: 43.7 MB

-------------------------   --------------------
FINAL SINGLE POINT ENERGY      -225.139505385170
-------------------------   --------------------



           ************************************************************
           *        Program running with 2 parallel MPI-processes     *
           *              working on a common directory               *
           ************************************************************
------------------------------------------------------------------------------
                         ORCA SCF GRADIENT CALCULATION
------------------------------------------------------------------------------

 ... reading COSX grid (gridx3)
Gradient of the Kohn-Sham DFT energy:
Kohn-Sham wavefunction type      ... RKS
Hartree-Fock exchange scaling    ...    0.200
Number of operators              ...    1
Number of atoms                  ...    3
Basis set dimensions             ...   42
Integral neglect threshold       ... 2.5e-11
Integral primitive cutoff        ... 2.5e-12
SHARK Integral package           ... ON

Nuc. rep. gradient       (SHARK) ... done (  0.0 sec)
HCore & Overlap gradient (SHARK) ... done (  0.0 sec)
RI-J gradient            (SHARK) ... done (  0.0 sec)
COSX-gradient                    ... done (  0.2 sec)
Exchange-correlation gradient    ... done

------------------
CARTESIAN GRADIENT
------------------

   1   O   :    0.017465221    0.000567290    0.000000000
   2   O   :   -0.010560430    0.015575822    0.000000009
   3   O   :   -0.006868087   -0.016180367   -0.000000003

Difference to translation invariance:
           :    0.0000367041   -0.0000372550    0.0000000062

Difference to rotation invariance:
           :   -0.0000000054   -0.0000000117   -0.0002901937

Norm of the cartesian gradient     ...    0.0311200826
RMS gradient                       ...    0.0103733609
MAX gradient                       ...    0.0174652207

-------
TIMINGS
-------

Total SCF gradient time            ...        0.470 sec

One electron gradient       ....       0.003 sec  (  0.5%)
RI-J Coulomb gradient       ....       0.050 sec  ( 10.6%)
COSX gradient               ....       0.181 sec  ( 38.5%)
XC gradient                 ....       0.110 sec  ( 23.5%)

Maximum memory used throughout the entire SCFGRAD-calculation: 33.3 MB
------------------------------------------------------------------------------
                         ORCA GEOMETRY RELAXATION STEP
------------------------------------------------------------------------------

Reading the OPT-File                    .... done
Getting information on internals        .... done
Copying old internal coords+grads       .... done
Making the new internal coordinates     .... (new redundants).... done
Validating the new internal coordinates .... (new redundants).... done
Calculating the B-matrix                .... done
Calculating the G,G- and P matrices     .... done
Transforming gradient to internals      .... done
Projecting the internal gradient        .... done
Number of atoms                         ....   3
Number of internal coordinates          ....   3
Current Energy                          ....  -225.139505385 Eh
Current gradient norm                   ....     0.031120083 Eh/bohr
Maximum allowed component of the step   ....  0.300
Current trust radius                    ....  0.300
[...]
   # of expansion vecs  DIISMaxEq       ....     5
   Bias factor          DIISBfac        ....   1.050
   Max. coefficient     DIISMaxC        ....  10.000
 Trust-Rad. Augm. Hess. CNVTRAH         .... auto
   Auto Start mean grad. ratio tolernc. ....  1.125000
   Auto Start start iteration           ....     1
   Auto Start num. interpolation iter.  ....    10
   Max. Number of Micro iterations      ....    16
   Max. Number of Macro iterations      .... Maxiter - #DIIS iter
   Number of Davidson start vectors     ....     2
   Converg. threshold I  (grad. norm)   ....   1.000e-05
   Converg. threshold II (energy diff.) ....   1.000e-08
   Grad. Scal. Fac. for Micro threshold ....   0.100
   Minimum threshold for Micro iter.    ....   0.010
   NR start threshold (gradient norm)   ....   0.001
   Initial trust radius                 ....   0.400
   Minimum AH scaling param. (alpha)    ....   1.000
   Maximum AH scaling param. (alpha)    .... 1000.000
   Orbital update algorithm             .... Taylor
   White noise on init. David. guess    .... on
   Maximum white noise                  ....   0.010
   Quad. conv. algorithm                .... NR
 SOSCF                  CNVSOSCF        .... on
   Start iteration      SOSCFMaxIt      ....   150
   Startup grad/error   SOSCFStart      ....  0.003300
 Level Shifting         CNVShift        .... on
   Level shift para.    LevelShift      ....    0.2500
   Turn off err/grad.   ShiftErr        ....    0.0010
 Zerner damping         CNVZerner       .... off
 Static damping         CNVDamp         .... on
   Fraction old density DampFac         ....    0.7000
   Max. Damping (<1)    DampMax         ....    0.9800
   Min. Damping (>=0)   DampMin         ....    0.0000
   Turn off err/grad.   DampErr         ....    0.1000
 Fernandez-Rico         CNVRico         .... off

SCF Procedure:
 Maximum # iterations   MaxIter         ....   125
 SCF integral mode      SCFMode         .... Direct
   Integral package                     .... SHARK and LIBINT hybrid scheme
 Reset frequency        DirectResetFreq ....    20
 Integral Threshold     Thresh          ....  2.500e-11 Eh
 Primitive CutOff       TCut            ....  2.500e-12 Eh

Convergence Tolerance:
 Convergence Check Mode ConvCheckMode   .... Total+1el-Energy
 Convergence forced     ConvForced      .... 0
 Energy Change          TolE            ....  1.000e-08 Eh
 1-El. energy change                    ....  1.000e-05 Eh
 Orbital Gradient       TolG            ....  1.000e-05
 Orbital Rotation angle TolX            ....  1.000e-05
 DIIS Error             TolErr          ....  5.000e-07


Diagonalization of the overlap matrix:
Smallest eigenvalue                        ... 1.199e-02
Time for diagonalization                   ...    0.000 sec
Threshold for overlap eigenvalues          ... 1.000e-08
Number of eigenvalues below threshold      ... 0
Time for construction of square roots      ...    0.001 sec
Total time needed                          ...    0.001 sec

---------------------
INITIAL GUESS: MOREAD
---------------------
Guess MOs are being read from file: O3.gbw
Input Geometry matches current geometry (good)
Input basis set matches current basis set (good)
MOs were renormalized
MOs were reorthogonalized (Cholesky)
                      ------------------
                      INITIAL GUESS DONE (   0.0 sec)
                      ------------------
-------------------
DFT GRID GENERATION
-------------------

General Integration Accuracy     IntAcc      ... 4.388
Radial Grid Type                 RadialGrid  ... OptM3 with GC (2021)
Angular Grid (max. ang.)         AngularGrid ... 4 (Lebedev-302)
Angular grid pruning method      GridPruning ... 4 (adaptive)
Weight generation scheme         WeightScheme... Becke
Basis function cutoff            BFCut       ... 1.0000e-11
Integration weight cutoff        WCut        ... 1.0000e-14
Angular grids for H and He will be reduced by one unit
Partially contracted basis set               ... off
Rotationally invariant grid construction     ... off

Total number of grid points                  ...    18378
Total number of batches                      ...      289
Average number of points per batch           ...       63
Average number of grid points per atom       ...     6126
Time for grid setup =    0.091 sec

--------------------
COSX GRID GENERATION
--------------------

GRIDX 1
-------
General Integration Accuracy     IntAcc      ... 3.816
Radial Grid Type                 RadialGrid  ... OptM3 with GC (2021)
Angular Grid (max. ang.)         AngularGrid ... 1 (Lebedev-50)
Angular grid pruning method      GridPruning ... 4 (adaptive)
Weight generation scheme         WeightScheme... Becke
Basis function cutoff            BFCut       ... 1.0000e-11
Integration weight cutoff        WCut        ... 1.0000e-14
Angular grids for H and He will be reduced by one unit
Partially contracted basis set               ... on
Rotationally invariant grid construction     ... off

Total number of grid points                  ...     2307
Total number of batches                      ...       38
Average number of points per batch           ...       60
Average number of grid points per atom       ...      769
UseSFitting                                  ... on

GRIDX 2
-------
General Integration Accuracy     IntAcc      ... 4.020
Radial Grid Type                 RadialGrid  ... OptM3 with GC (2021)
Angular Grid (max. ang.)         AngularGrid ... 2 (Lebedev-110)
Angular grid pruning method      GridPruning ... 4 (adaptive)
Weight generation scheme         WeightScheme... Becke
Basis function cutoff            BFCut       ... 1.0000e-11
Integration weight cutoff        WCut        ... 1.0000e-14
Angular grids for H and He will be reduced by one unit
Partially contracted basis set               ... on
Rotationally invariant grid construction     ... off

Total number of grid points                  ...     5647
Total number of batches                      ...       90
Average number of points per batch           ...       62
Average number of grid points per atom       ...     1882
UseSFitting                                  ... on

GRIDX 3
-------
General Integration Accuracy     IntAcc      ... 4.338
Radial Grid Type                 RadialGrid  ... OptM3 with GC (2021)
Angular Grid (max. ang.)         AngularGrid ... 3 (Lebedev-194)
Angular grid pruning method      GridPruning ... 4 (adaptive)
Weight generation scheme         WeightScheme... Becke
Basis function cutoff            BFCut       ... 1.0000e-11
Integration weight cutoff        WCut        ... 1.0000e-14
Angular grids for H and He will be reduced by one unit
Partially contracted basis set               ... on
Rotationally invariant grid construction     ... off

Total number of grid points                  ...    12601
Total number of batches                      ...      199
Average number of points per batch           ...       63
Average number of grid points per atom       ...     4200
UseSFitting                                  ... on

Time for X-Grid setup             =    0.072 sec

--------------
SCF ITERATIONS
--------------
ITER       Energy         Delta-E        Max-DP      RMS-DP      [F,P]     Damp
               ***  Starting incremental Fock matrix formation  ***
                      *** Initiating the SOSCF procedure ***
                      *** Re-Reading the Fockian *** 
                      *** Removing any level shift *** 
ITER      Energy       Delta-E        Grad      Rot      Max-DP    RMS-DP
  0   -225.13996778 -225.1399677812  0.000102  0.000102  0.000195  0.000015
               *** Restarting incremental Fock matrix formation ***
  1   -225.13996799  -0.0000002084  0.000040  0.000090  0.000083  0.000009
  2   -225.13996801  -0.0000000240  0.000015  0.000086  0.000087  0.000005
  3   -225.13996800   0.0000000144  0.000072  0.000072  0.000066  0.000004
  4   -225.13996801  -0.0000000156  0.000005  0.000004  0.000009  0.000001
  5   -225.13996801  -0.0000000001  0.000005  0.000005  0.000005  0.000000
                  ***Gradient check signals convergence***
              ***Rediagonalizing the Fockian in SOSCF/NRSCF***

               *****************************************************
               *                     SUCCESS                       *
               *           SCF CONVERGED AFTER   6 CYCLES          *
               *****************************************************

Old exchange energy                            =     -4.867985800 Eh
New exchange energy                            =     -4.867994227 Eh
Exchange energy change after final integration =     -0.000008428 Eh
Total energy after final integration           =   -225.139976443 Eh
Final COS-X integration done in                =     0.139 sec

----------------
TOTAL SCF ENERGY
----------------

Total Energy       :         -225.13997644 Eh           -6126.37022 eV

Components:
Nuclear Repulsion  :           69.96053413 Eh            1903.72292 eV
Electronic Energy  :         -295.10051057 Eh           -8030.09313 eV
One Electron Energy:         -447.53055943 Eh          -12177.92564 eV
Two Electron Energy:          152.43004886 Eh            4147.83250 eV
Max COSX asymmetry :            0.00000085 Eh               0.00002 eV

Virial components:
Potential Energy   :         -449.40266788 Eh          -12228.86830 eV
Kinetic Energy     :          224.26269144 Eh            6102.49808 eV
Virial Ratio       :            2.00391186


DFT components:
N(Alpha)           :       11.999999949325 electrons
N(Beta)            :       11.999999949325 electrons
N(Total)           :       23.999999898649 electrons
E(X)               :      -19.537245369690 Eh       
E(C)               :       -1.031779703220 Eh       
E(XC)              :      -20.569025072911 Eh       
DFET-embed. en.    :        0.000000000000 Eh       

---------------
SCF CONVERGENCE
---------------

  Last Energy change         ...   -1.8909e-10  Tolerance :   1.0000e-08
  Last MAX-Density change    ...    7.7716e-16  Tolerance :   1.0000e-07
  Last RMS-Density change    ...    6.2222e-17  Tolerance :   5.0000e-09
  Last Orbital Gradient      ...    2.1156e-06  Tolerance :   1.0000e-05
  Last Orbital Rotation      ...    2.2875e-06  Tolerance :   1.0000e-05

             **** THE GBW FILE WAS UPDATED (O3.gbw) ****
             **** DENSITY O3.scfp WAS UPDATED ****
             **** ENERGY FILE WAS UPDATED (O3.en.tmp) ****
             **** THE GBW FILE WAS UPDATED (O3.gbw) ****
             **** DENSITY O3.scfp WAS UPDATED ****
----------------
ORBITAL ENERGIES
----------------

  NO   OCC          E(Eh)            E(eV) 
   0   2.0000     -19.425316      -528.5897 
   1   2.0000     -19.243388      -523.6392 
   2   2.0000     -19.243256      -523.6356 
   3   2.0000      -1.368413       -37.2364 
   4   2.0000      -1.096210       -29.8294 
   5   2.0000      -0.755269       -20.5519 
   6   2.0000      -0.609463       -16.5843 
   7   2.0000      -0.594210       -16.1693 
   8   2.0000      -0.585602       -15.9351 
   9   2.0000      -0.362430        -9.8622 
  10   2.0000      -0.345424        -9.3995 
  11   2.0000      -0.332414        -9.0454 
  12   0.0000      -0.180916        -4.9230 
  13   0.0000       0.104804         2.8519 
  14   0.0000       0.193154         5.2560 
  15   0.0000       0.672227        18.2922 
  16   0.0000       0.785366        21.3709 
  17   0.0000       0.800034        21.7700 
  18   0.0000       0.801656        21.8142 
  19   0.0000       0.839489        22.8437 
  20   0.0000       0.898613        24.4525 
  21   0.0000       0.920964        25.0607 
  22   0.0000       0.963695        26.2235 
  23   0.0000       0.987126        26.8611 
  24   0.0000       1.059000        28.8169 
  25   0.0000       1.179885        32.1063 
  26   0.0000       1.198958        32.6253 
  27   0.0000       1.965388        53.4809 
  28   0.0000       2.052593        55.8539 
  29   0.0000       2.141920        58.2846 
  30   0.0000       2.484458        67.6055 
  31   0.0000       2.490901        67.7809 
  32   0.0000       2.548270        69.3420 
  33   0.0000       2.565715        69.8167 
  34   0.0000       2.587427        70.4075 
  35   0.0000       2.687288        73.1248 
  36   0.0000       2.838894        77.2502 
  37   0.0000       3.092149        84.1417 
  38   0.0000       3.265464        88.8578 
  39   0.0000       3.329190        90.5919 
  40   0.0000       3.753341       102.1336 
  41   0.0000       3.840334       104.5008 

                    ********************************
                    * MULLIKEN POPULATION ANALYSIS *
                    ********************************

-----------------------
MULLIKEN ATOMIC CHARGES
-----------------------
   0 O :   -0.102899
   1 O :    0.205809
   2 O :   -0.102910
Sum of atomic charges:   -0.0000000

--------------------------------
MULLIKEN REDUCED ORBITAL CHARGES
--------------------------------
  0 O s       :     3.927405  s :     3.927405
      pz      :     1.308626  p :     4.150731
      px      :     0.923706
      py      :     1.918400
      dz2     :     0.003387  d :     0.024763
      dxz     :     0.006540
      dyz     :     0.000046
      dx2y2   :     0.010178
      dxy     :     0.004612
  1 O s       :     3.795438  s :     3.795438
      pz      :     1.351257  p :     3.935030
      px      :     1.202366
      py      :     1.381406
      dz2     :     0.005708  d :     0.063723
      dxz     :     0.011037
      dyz     :     0.007273
      dx2y2   :     0.021544
      dxy     :     0.018160
  2 O s       :     3.927404  s :     3.927404
      pz      :     1.308633  p :     4.150742
      px      :     1.723738
      py      :     1.118371
      dz2     :     0.003387  d :     0.024764
      dxz     :     0.001243
      dyz     :     0.005344
      dx2y2   :     0.006591
      dxy     :     0.008199


                     *******************************
                     * LOEWDIN POPULATION ANALYSIS *
                     *******************************

----------------------
LOEWDIN ATOMIC CHARGES
----------------------
   0 O :   -0.138020
   1 O :    0.276047
   2 O :   -0.138026

-------------------------------
LOEWDIN REDUCED ORBITAL CHARGES
-------------------------------
  0 O s       :     3.742324  s :     3.742324
      pz      :     1.319022  p :     4.347557
      px      :     1.118370
      py      :     1.910164
      dz2     :     0.007792  d :     0.048140
      dxz     :     0.009022
      dyz     :     0.000067
      dx2y2   :     0.023182
      dxy     :     0.008077
  1 O s       :     3.525089  s :     3.525089
      pz      :     1.316008  p :     4.076832
      px      :     1.300983
      py      :     1.459841
      dz2     :     0.011994  d :     0.122032
      dxz     :     0.017609
      dyz     :     0.010154
      dx2y2   :     0.044022
      dxy     :     0.038253
  2 O s       :     3.742320  s :     3.742320
      pz      :     1.319030  p :     4.347565
      px      :     1.751587
      py      :     1.276948
      dz2     :     0.007792  d :     0.048141
      dxz     :     0.001730
      dyz     :     0.007358
      dx2y2   :     0.014282
      dxy     :     0.016978


                      *****************************
                      * MAYER POPULATION ANALYSIS *
                      *****************************

  NA   - Mulliken gross atomic population
  ZA   - Total nuclear charge
  QA   - Mulliken gross atomic charge
  VA   - Mayer's total valence
  BVA  - Mayer's bonded valence
  FA   - Mayer's free valence

  ATOM       NA         ZA         QA         VA         BVA        FA
  0 O      8.1029     8.0000    -0.1029     1.8387     1.8387     0.0000
  1 O      7.7942     8.0000     0.2058     2.6459     2.6459    -0.0000
  2 O      8.1029     8.0000    -0.1029     1.8387     1.8387    -0.0000

  Mayer bond orders larger than 0.100000
B(  0-O ,  1-O ) :   1.3230 B(  0-O ,  2-O ) :   0.5157 B(  1-O ,  2-O ) :   1.3230 


-------
TIMINGS
-------

Total SCF time: 0 days 0 hours 0 min 1 sec 

Total time                  ....       1.227 sec
Sum of individual times     ....       1.141 sec  ( 93.0%)

Fock matrix formation       ....       0.967 sec  ( 78.9%)
  Split-RI-J                ....       0.151 sec  ( 15.6% of F)
  Chain of spheres X        ....       0.610 sec  ( 63.1% of F)
  XC integration            ....       0.202 sec  ( 20.9% of F)
    Basis function eval.    ....       0.063 sec  ( 31.3% of XC)
    Density eval.           ....       0.042 sec  ( 20.7% of XC)
    XC-Functional eval.     ....       0.032 sec  ( 15.8% of XC)
    XC-Potential eval.      ....       0.026 sec  ( 12.7% of XC)
Diagonalization             ....       0.001 sec  (  0.1%)
Density matrix formation    ....       0.000 sec  (  0.0%)
Population analysis         ....       0.003 sec  (  0.2%)
Initial guess               ....       0.001 sec  (  0.1%)
Orbital Transformation      ....       0.000 sec  (  0.0%)
Orbital Orthonormalization  ....       0.000 sec  (  0.0%)
DIIS solution               ....       0.001 sec  (  0.1%)
SOSCF solution              ....       0.005 sec  (  0.4%)
Grid generation             ....       0.163 sec  ( 13.3%)

Maximum memory used throughout the entire SCF-calculation: 43.7 MB

-------------------------   --------------------
FINAL SINGLE POINT ENERGY      -225.139976442781
-------------------------   --------------------

                                *** OPTIMIZATION RUN DONE ***

                            ***************************************
                            *     ORCA property calculations      *
                            ***************************************

                                    ---------------------
                                    Active property flags
                                    ---------------------
   (+) Dipole Moment


------------------------------------------------------------------------------
                       ORCA ELECTRIC PROPERTIES CALCULATION
------------------------------------------------------------------------------

Dipole Moment Calculation                       ... on
Quadrupole Moment Calculation                   ... off
Polarizability Calculation                      ... off
GBWName                                         ... O3.gbw
Electron density                                ... O3.scfp
The origin for moment calculation is the CENTER OF MASS  = ( 2.014016,  0.792921  0.000000)

-------------
DIPOLE MOMENT
-------------
                                X             Y             Z
Electronic contribution:      0.13996      -0.20516       0.00000
Nuclear contribution   :     -0.00000      -0.00000       0.00000
                        -----------------------------------------
Total Dipole Moment    :      0.13996      -0.20516       0.00000
                        -----------------------------------------
Magnitude (a.u.)       :      0.24835
Magnitude (Debye)      :      0.63126



--------------------
Rotational spectrum 
--------------------
 
Rotational constants in cm-1:     3.853906     0.457139     0.408665 
Rotational constants in MHz : 115537.200613 13704.696786 12251.462829 

 Dipole components along the rotational axes: 
x,y,z [a.u.] :    -0.000005    -0.248354     0.000000 
x,y,z [Debye]:    -0.000012    -0.631265     0.000000 

 

Timings for individual modules:

Sum of individual times         ...       24.493 sec (=   0.408 min)
GTO integral calculation        ...        6.168 sec (=   0.103 min)  25.2 %
SCF iterations                  ...       12.305 sec (=   0.205 min)  50.2 %
SCF Gradient evaluation         ...        5.125 sec (=   0.085 min)  20.9 %
Geometry relaxation             ...        0.895 sec (=   0.015 min)   3.7 %
                             ****ORCA TERMINATED NORMALLY****
TOTAL RUN TIME: 0 days 0 hours 0 minutes 26 seconds 662 msec
