
                                 *****************
                                 * O   R   C   A *
                                 *****************

                                            #,                                       
                                            ###                                      
                                            ####                                     
                                            #####                                    
                                            ######                                   
                                           ########,                                 
                                     ,,################,,,,,                         
                               ,,#################################,,                 
                          ,,##########################################,,             
                       ,#########################################, ''#####,          
                    ,#############################################,,   '####,        
                  ,##################################################,,,,####,       
                ,###########''''           ''''###############################       
              ,#####''   ,,,,##########,,,,          '''####'''          '####       
            ,##' ,,,,###########################,,,                        '##       
           ' ,,###''''                  '''############,,,                           
         ,,##''                                '''############,,,,        ,,,,,,###''
      ,#''                                            '''#######################'''  
     '                                                          ''''####''''         
             ,#######,   #######,   ,#######,      ##                                
            ,#'     '#,  ##    ##  ,#'     '#,    #''#        ######   ,####,        
            ##       ##  ##   ,#'  ##            #'  '#       #        #'  '#        
            ##       ##  #######   ##           ,######,      #####,   #    #        
            '#,     ,#'  ##    ##  '#,     ,#' ,#      #,         ##   #,  ,#        
             '#######'   ##     ##  '#######'  #'      '#     #####' # '####'        



                  #######################################################
                  #                        -***-                        #
                  #          Department of theory and spectroscopy      #
                  #    Directorship and core code : Frank Neese         #
                  #        Max Planck Institute fuer Kohlenforschung    #
                  #                Kaiser Wilhelm Platz 1               #
                  #                 D-45470 Muelheim/Ruhr               #
                  #                      Germany                        #
                  #                                                     #
                  #                  All rights reserved                #
                  #                        -***-                        #
                  #######################################################


                         Program Version 5.0.4 -  RELEASE  -


 With contributions from (in alphabetic order):
   Daniel Aravena         : Magnetic Suceptibility
   Michael Atanasov       : Ab Initio Ligand Field Theory (pilot matlab implementation)
   Alexander A. Auer      : GIAO ZORA, VPT2 properties, NMR spectrum
   Ute Becker             : Parallelization
   Giovanni Bistoni       : ED, misc. LED, open-shell LED, HFLD
   Martin Brehm           : Molecular dynamics
   Dmytro Bykov           : SCF Hessian
   Vijay G. Chilkuri      : MRCI spin determinant printing, contributions to CSF-ICE
   Dipayan Datta          : RHF DLPNO-CCSD density
   Achintya Kumar Dutta   : EOM-CC, STEOM-CC
   Dmitry Ganyushin       : Spin-Orbit,Spin-Spin,Magnetic field MRCI
   Miquel Garcia          : C-PCM and meta-GGA Hessian, CC/C-PCM, Gaussian charge scheme
   Yang Guo               : DLPNO-NEVPT2, F12-NEVPT2, CIM, IAO-localization
   Andreas Hansen         : Spin unrestricted coupled pair/coupled cluster methods
   Benjamin Helmich-Paris : MC-RPA, TRAH-SCF, COSX integrals
   Lee Huntington         : MR-EOM, pCC
   Robert Izsak           : Overlap fitted RIJCOSX, COSX-SCS-MP3, EOM
   Marcus Kettner         : VPT2
   Christian Kollmar      : KDIIS, OOCD, Brueckner-CCSD(T), CCSD density, CASPT2, CASPT2-K
   Simone Kossmann        : Meta GGA functionals, TD-DFT gradient, OOMP2, MP2 Hessian
   Martin Krupicka        : Initial AUTO-CI
   Lucas Lang             : DCDCAS
   Marvin Lechner         : AUTO-CI (C++ implementation), FIC-MRCC
   Dagmar Lenk            : GEPOL surface, SMD
   Dimitrios Liakos       : Extrapolation schemes; Compound Job, initial MDCI parallelization
   Dimitrios Manganas     : Further ROCIS development; embedding schemes
   Dimitrios Pantazis     : SARC Basis sets
   Anastasios Papadopoulos: AUTO-CI, single reference methods and gradients
   Taras Petrenko         : DFT Hessian,TD-DFT gradient, ASA, ECA, R-Raman, ABS, FL, XAS/XES, NRVS
   Peter Pinski           : DLPNO-MP2, DLPNO-MP2 Gradient
   Christoph Reimann      : Effective Core Potentials
   Marius Retegan         : Local ZFS, SOC
   Christoph Riplinger    : Optimizer, TS searches, QM/MM, DLPNO-CCSD(T), (RO)-DLPNO pert. Triples
   Tobias Risthaus        : Range-separated hybrids, TD-DFT gradient, RPA, STAB
   Michael Roemelt        : Original ROCIS implementation
   Masaaki Saitow         : Open-shell DLPNO-CCSD energy and density
   Barbara Sandhoefer     : DKH picture change effects
   Avijit Sen             : IP-ROCIS
   Kantharuban Sivalingam : CASSCF convergence, NEVPT2, FIC-MRCI
   Bernardo de Souza      : ESD, SOC TD-DFT
   Georgi Stoychev        : AutoAux, RI-MP2 NMR, DLPNO-MP2 response
   Willem Van den Heuvel  : Paramagnetic NMR
   Boris Wezisla          : Elementary symmetry handling
   Frank Wennmohs         : Technical directorship


 We gratefully acknowledge several colleagues who have allowed us to
 interface, adapt or use parts of their codes:
   Stefan Grimme, W. Hujo, H. Kruse, P. Pracht,  : VdW corrections, initial TS optimization,
                  C. Bannwarth, S. Ehlert          DFT functionals, gCP, sTDA/sTD-DF
   Ed Valeev, F. Pavosevic, A. Kumar             : LibInt (2-el integral package), F12 methods
   Garnet Chan, S. Sharma, J. Yang, R. Olivares  : DMRG
   Ulf Ekstrom                                   : XCFun DFT Library
   Mihaly Kallay                                 : mrcc  (arbitrary order and MRCC methods)
   Jiri Pittner, Ondrej Demel                    : Mk-CCSD
   Frank Weinhold                                : gennbo (NPA and NBO analysis)
   Christopher J. Cramer and Donald G. Truhlar   : smd solvation model
   Lars Goerigk                                  : TD-DFT with DH, B97 family of functionals
   V. Asgeirsson, H. Jonsson                     : NEB implementation
   FAccTs GmbH                                   : IRC, NEB, NEB-TS, DLPNO-Multilevel, CI-OPT
                                                   MM, QMMM, 2- and 3-layer-ONIOM, Crystal-QMMM,
                                                   LR-CPCM, SF, NACMEs, symmetry and pop. for TD-DFT,
                                                   nearIR, NL-DFT gradient (VV10), updates on ESD,
                                                   ML-optimized integration grids
   S Lehtola, MJT Oliveira, MAL Marques          : LibXC Library
   Liviu Ungur et al                             : ANISO software


 Your calculation uses the libint2 library for the computation of 2-el integrals
 For citations please refer to: http://libint.valeyev.net

 Your ORCA version has been built with support for libXC version: 5.1.0
 For citations please refer to: https://tddft.org/programs/libxc/

 This ORCA versions uses:
   CBLAS   interface :  Fast vector & matrix operations
   LAPACKE interface :  Fast linear algebra routines
   SCALAPACK package :  Parallel linear algebra routines
   Shared memory     :  Shared parallel matrices
   BLAS/LAPACK       :  OpenBLAS 0.3.15  USE64BITINT DYNAMIC_ARCH NO_AFFINITY Zen SINGLE_THREADED
        Core in use  :  Zen
   Copyright (c) 2011-2014, The OpenBLAS Project


================================================================================

----- Orbital basis set information -----
Your calculation utilizes the basis: def2-SVP
   F. Weigend and R. Ahlrichs, Phys. Chem. Chem. Phys. 7, 3297 (2005).

----- AuxJ basis set information -----
Your calculation utilizes the auxiliary basis: def2/J
   F. Weigend, Phys. Chem. Chem. Phys. 8, 1057 (2006).

================================================================================
                                        WARNINGS
                       Please study these warnings very carefully!
================================================================================


INFO   : the flag for use of the SHARK integral package has been found!

================================================================================
                                       INPUT FILE
================================================================================
NAME = O3.inp
|  1> ! BP def2-SVP def2/J
|  2> 
|  3> %paras
|  4> 	R = 118.32108267,40,80
|  5> end
|  6> 
|  7> *int 0 1
|  8> 	O      0   0   0     0.000000000000     0.00000000     0.00000000
|  9> 	O      1   0   0     1.250148781330     0.00000000     0.00000000
| 10> 	O      2   1   0     1.250136431439   	{R}    		   0.00000000
| 11> **                         ****END OF INPUT****
================================================================================

                       ******************************
                       * Parameter Scan Calculation *
                       ******************************

Trajectory settings:
    -> SCF surface will be mapped

There are 1 parameter(s) to be scanned
             R: range= 118.32108267 ..  40.00000000  steps=   80
There will be   80 energy evaluations


         *************************************************************
                                TRAJECTORY STEP   1
                  R  : 118.32108267
         *************************************************************
---------------------------------
CARTESIAN COORDINATES (ANGSTROEM)
---------------------------------
  O      0.000000    0.000000    0.000000
  O      1.250149    0.000000    0.000000
  O      1.843229    1.100499    0.000000

----------------------------
CARTESIAN COORDINATES (A.U.)
----------------------------
  NO LB      ZA    FRAG     MASS         X           Y           Z
   0 O     8.0000    0    15.999    0.000000    0.000000    0.000000
   1 O     8.0000    0    15.999    2.362439    0.000000    0.000000
   2 O     8.0000    0    15.999    3.483197    2.079641    0.000000

--------------------------------
INTERNAL COORDINATES (ANGSTROEM)
--------------------------------
 O      0   0   0     0.000000000000     0.00000000     0.00000000
 O      1   0   0     1.250148781330     0.00000000     0.00000000
 O      2   1   0     1.250136431439   118.32108267     0.00000000

---------------------------
INTERNAL COORDINATES (A.U.)
---------------------------
 O      0   0   0     0.000000000000     0.00000000     0.00000000
 O      1   0   0     2.362438823369     0.00000000     0.00000000
 O      2   1   0     2.362415485457   118.32108267     0.00000000

---------------------
BASIS SET INFORMATION
---------------------
There are 1 groups of distinct atoms

 Group   1 Type O   : 7s4p1d contracted to 3s2p1d pattern {511/31/1}

Atom   0O    basis set group =>   1
Atom   1O    basis set group =>   1
Atom   2O    basis set group =>   1
---------------------------------
AUXILIARY/J BASIS SET INFORMATION
---------------------------------
There are 1 groups of distinct atoms

 Group   1 Type O   : 12s5p4d2f1g contracted to 6s4p3d1f1g pattern {711111/2111/211/2/1}

Atom   0O    basis set group =>   1
Atom   1O    basis set group =>   1
Atom   2O    basis set group =>   1
------------------------------------------------------------------------------
                           ORCA GTO INTEGRAL CALCULATION
                           -- RI-GTO INTEGRALS CHOSEN --
------------------------------------------------------------------------------
------------------------------------------------------------------------------
                   ___                                                        
                  /   \      - P O W E R E D   B Y -                         
                 /     \                                                     
                 |  |  |   _    _      __       _____    __    __             
                 |  |  |  | |  | |    /  \     |  _  \  |  |  /  |          
                  \  \/   | |  | |   /    \    | | | |  |  | /  /          
                 / \  \   | |__| |  /  /\  \   | |_| |  |  |/  /          
                |  |  |   |  __  | /  /__\  \  |    /   |      \           
                |  |  |   | |  | | |   __   |  |    \   |  |\   \          
                \     /   | |  | | |  |  |  |  | |\  \  |  | \   \       
                 \___/    |_|  |_| |__|  |__|  |_| \__\ |__|  \__/        
                                                                              
                      - O R C A' S   B I G   F R I E N D -                    
                                      &                                       
                       - I N T E G R A L  F E E D E R -                       
                                                                              
 v1 FN, 2020, v2 2021                                                         
------------------------------------------------------------------------------


Reading SHARK input file O3.SHARKINP.tmp ... ok
----------------------
SHARK INTEGRAL PACKAGE
----------------------

Number of atoms                             ...      3
Number of basis functions                   ...     42
Number of shells                            ...     18
Maximum angular momentum                    ...      2
Integral batch strategy                     ... SHARK/LIBINT Hybrid
RI-J (if used) integral strategy            ... SPLIT-RIJ (Revised 2003 algorithm where possible)
Printlevel                                  ...      1
Contraction scheme used                     ... SEGMENTED contraction
Coulomb Range Separation                    ... NOT USED
Exchange Range Separation                   ... NOT USED
Finite Nucleus Model                        ... NOT USED
Auxiliary Coulomb fitting basis             ... AVAILABLE
   # of basis functions in Aux-J            ...    147
   # of shells in Aux-J                     ...     45
   Maximum angular momentum in Aux-J        ...      4
Auxiliary J/K fitting basis                 ... NOT available
Auxiliary Correlation fitting basis         ... NOT available
Auxiliary 'external' fitting basis          ... NOT available
Integral threshold                          ...     1.000000e-10
Primitive cut-off                           ...     1.000000e-11
Primitive pair pre-selection threshold      ...     1.000000e-11

Calculating pre-screening integrals         ... done (  0.0 sec) Dimension = 18
Organizing shell pair data                  ... done (  0.0 sec)
Shell pair information
Total number of shell pairs                 ...       171
Shell pairs after pre-screening             ...       170
Total number of primitive shell pairs       ...       705
Primitive shell pairs kept                  ...       594
          la=0 lb=0:     44 shell pairs
          la=1 lb=0:     54 shell pairs
          la=1 lb=1:     21 shell pairs
          la=2 lb=0:     27 shell pairs
          la=2 lb=1:     18 shell pairs
          la=2 lb=2:      6 shell pairs

Calculating one electron integrals          ... done (  0.0 sec)
Calculating RI/J V-Matrix + Cholesky decomp.... done (  0.0 sec)
Calculating Nuclear repulsion               ... done (  0.0 sec) ENN=     69.957572115147 Eh

SHARK setup successfully completed in   0.1 seconds

Maximum memory used throughout the entire GTOINT-calculation: 8.9 MB
-------------------------------------------------------------------------------
                                 ORCA SCF
-------------------------------------------------------------------------------

------------
SCF SETTINGS
------------
Hamiltonian:
 Density Functional     Method          .... DFT(GTOs)
 Exchange Functional    Exchange        .... B88
   X-Alpha parameter    XAlpha          ....  0.666667
   Becke's b parameter  XBeta           ....  0.004200
 Correlation Functional Correlation     .... P86
 LDA part of GGA corr.  LDAOpt          .... PW91-LDA
 Gradients option       PostSCFGGA      .... off
   Density functional embedding theory  .... OFF
   NL short-range parameter             ....  4.400000
 RI-approximation to the Coulomb term is turned on
   Number of AuxJ basis functions       .... 147


General Settings:
 Integral files         IntName         .... O3
 Hartree-Fock type      HFTyp           .... RHF
 Total Charge           Charge          ....    0
 Multiplicity           Mult            ....    1
 Number of Electrons    NEL             ....   24
 Basis Dimension        Dim             ....   42
 Nuclear Repulsion      ENuc            ....     69.9575721151 Eh

Convergence Acceleration:
 DIIS                   CNVDIIS         .... on
   Start iteration      DIISMaxIt       ....    12
   Startup error        DIISStart       ....  0.200000
   # of expansion vecs  DIISMaxEq       ....     5
   Bias factor          DIISBfac        ....   1.050
   Max. coefficient     DIISMaxC        ....  10.000
 Trust-Rad. Augm. Hess. CNVTRAH         .... auto
   Auto Start mean grad. ratio tolernc. ....  1.125000
   Auto Start start iteration           ....    20
   Auto Start num. interpolation iter.  ....    10
   Max. Number of Micro iterations      ....    16
   Max. Number of Macro iterations      .... Maxiter - #DIIS iter
   Number of Davidson start vectors     ....     2
   Converg. threshold I  (grad. norm)   ....   5.000e-05
   Converg. threshold II (energy diff.) ....   1.000e-06
   Grad. Scal. Fac. for Micro threshold ....   0.100
   Minimum threshold for Micro iter.    ....   0.010
   NR start threshold (gradient norm)   ....   0.001
   Initial trust radius                 ....   0.400
   Minimum AH scaling param. (alpha)    ....   1.000
   Maximum AH scaling param. (alpha)    .... 1000.000
   Orbital update algorithm             .... Taylor
   White noise on init. David. guess    .... on
   Maximum white noise                  ....   0.010
   Quad. conv. algorithm                .... NR
 SOSCF                  CNVSOSCF        .... on
   Start iteration      SOSCFMaxIt      ....   150
   Startup grad/error   SOSCFStart      ....  0.003300
 Level Shifting         CNVShift        .... on
   Level shift para.    LevelShift      ....    0.2500
   Turn off err/grad.   ShiftErr        ....    0.0010
 Zerner damping         CNVZerner       .... off
 Static damping         CNVDamp         .... on
   Fraction old density DampFac         ....    0.7000
   Max. Damping (<1)    DampMax         ....    0.9800
   Min. Damping (>=0)   DampMin         ....    0.0000
   Turn off err/grad.   DampErr         ....    0.1000
 Fernandez-Rico         CNVRico         .... off

SCF Procedure:
 Maximum # iterations   MaxIter         ....   125
 SCF integral mode      SCFMode         .... Direct
   Integral package                     .... SHARK and LIBINT hybrid scheme
 Reset frequency        DirectResetFreq ....    20
 Integral Threshold     Thresh          ....  1.000e-10 Eh
 Primitive CutOff       TCut            ....  1.000e-11 Eh

Convergence Tolerance:
 Convergence Check Mode ConvCheckMode   .... Total+1el-Energy
 Convergence forced     ConvForced      .... 0
 Energy Change          TolE            ....  1.000e-06 Eh
 1-El. energy change                    ....  1.000e-03 Eh
 Orbital Gradient       TolG            ....  5.000e-05
 Orbital Rotation angle TolX            ....  5.000e-05
 DIIS Error             TolErr          ....  1.000e-06


Diagonalization of the overlap matrix:
Smallest eigenvalue                        ... 1.200e-02
Time for diagonalization                   ...    0.001 sec
Threshold for overlap eigenvalues          ... 1.000e-08
Number of eigenvalues below threshold      ... 0
Time for construction of square roots      ...    0.000 sec
Total time needed                          ...    0.001 sec

Time for model grid setup =    0.015 sec

------------------------------
INITIAL GUESS: MODEL POTENTIAL
------------------------------
Loading Hartree-Fock densities                     ... done
Calculating cut-offs                               ... done
Initializing the effective Hamiltonian             ... done
Setting up the integral package (SHARK)            ... done
Starting the Coulomb interaction                   ... done (   0.1 sec)
Reading the grid                                   ... done
Mapping shells                                     ... done
Starting the XC term evaluation                    ... done (   0.0 sec)
  promolecular density results
     # of electrons  =     23.999945112
     EX              =    -24.516682178
     EC              =     -0.910853084
     EX+EC           =    -25.427535261
Transforming the Hamiltonian                       ... done (   0.0 sec)
Diagonalizing the Hamiltonian                      ... done (   0.0 sec)
Back transforming the eigenvectors                 ... done (   0.0 sec)
Now organizing SCF variables                       ... done
                      ------------------
                      INITIAL GUESS DONE (   0.1 sec)
                      ------------------
-------------------
DFT GRID GENERATION
-------------------

General Integration Accuracy     IntAcc      ... 4.388
Radial Grid Type                 RadialGrid  ... OptM3 with GC (2021)
Angular Grid (max. ang.)         AngularGrid ... 4 (Lebedev-302)
Angular grid pruning method      GridPruning ... 4 (adaptive)
Weight generation scheme         WeightScheme... Becke
Basis function cutoff            BFCut       ... 1.0000e-10
Integration weight cutoff        WCut        ... 1.0000e-14
Angular grids for H and He will be reduced by one unit
Partially contracted basis set               ... off
Rotationally invariant grid construction     ... off

Total number of grid points                  ...    18382
Total number of batches                      ...      289
Average number of points per batch           ...       63
Average number of grid points per atom       ...     6127
Time for grid setup =    0.099 sec

--------------
SCF ITERATIONS
--------------
ITER       Energy         Delta-E        Max-DP      RMS-DP      [F,P]     Damp
               ***  Starting incremental Fock matrix formation  ***
  0   -225.1404030912   0.000000000000 0.13200079  0.00771190  0.3219724 0.7000
  1   -225.2130754057  -0.072672314528 0.05535806  0.00331436  0.0615230 0.7000
                               ***Turning on DIIS***
  2   -225.2259078394  -0.012832433744 0.06113729  0.00384104  0.0540673 0.0000
  3   -225.2727350123  -0.046827172833 0.01740610  0.00173330  0.0121704 0.0000
  4   -225.2732366874  -0.000501675166 0.00891659  0.00050128  0.0230803 0.0000
  5   -225.2736996184  -0.000462930969 0.00208928  0.00015373  0.0065376 0.0000
                      *** Initiating the SOSCF procedure ***
                           *** Shutting down DIIS ***
                      *** Re-Reading the Fockian *** 
                      *** Removing any level shift *** 
ITER      Energy       Delta-E        Grad      Rot      Max-DP    RMS-DP
  6   -225.27373943  -0.0000398095  0.000293  0.000293  0.000847  0.000056
               *** Restarting incremental Fock matrix formation ***
  7   -225.27374145  -0.0000020191  0.000471  0.003974  0.003764  0.000197
  8   -225.27370657   0.0000348789  0.003686  0.003706  0.003387  0.000176
  9   -225.27374200  -0.0000354295  0.000240  0.000718  0.001005  0.000050
 10   -225.27374034   0.0000016595  0.000744  0.000544  0.000740  0.000037
 11   -225.27374221  -0.0000018732  0.000030  0.000025  0.000079  0.000005
                 **** Energy Check signals convergence ****
              ***Rediagonalizing the Fockian in SOSCF/NRSCF***

               *****************************************************
               *                     SUCCESS                       *
               *           SCF CONVERGED AFTER  12 CYCLES          *
               *****************************************************


----------------
TOTAL SCF ENERGY
----------------

Total Energy       :         -225.27374221 Eh           -6130.01017 eV

Components:
Nuclear Repulsion  :           69.95757212 Eh            1903.64232 eV
Electronic Energy  :         -295.23131433 Eh           -8033.65249 eV
One Electron Energy:         -447.57049258 Eh          -12179.01227 eV
Two Electron Energy:          152.33917825 Eh            4145.35979 eV

Virial components:
Potential Energy   :         -449.55543598 Eh          -12233.02533 eV
Kinetic Energy     :          224.28169377 Eh            6103.01516 eV
Virial Ratio       :            2.00442323


DFT components:
N(Alpha)           :       11.999999020669 electrons
N(Beta)            :       11.999999020669 electrons
N(Total)           :       23.999998041337 electrons
E(X)               :      -24.657444300215 Eh       
E(C)               :       -0.911236548232 Eh       
E(XC)              :      -25.568680848447 Eh       
DFET-embed. en.    :        0.000000000000 Eh       

---------------
SCF CONVERGENCE
---------------

  Last Energy change         ...    3.7144e-10  Tolerance :   1.0000e-06
  Last MAX-Density change    ...    3.6316e-05  Tolerance :   1.0000e-05
  Last RMS-Density change    ...    2.5874e-06  Tolerance :   1.0000e-06
  Last Orbital Gradient      ...    2.8164e-05  Tolerance :   5.0000e-05
  Last Orbital Rotation      ...    1.2258e-05  Tolerance :   5.0000e-05

             **** THE GBW FILE WAS UPDATED (O3.gbw) ****
             **** DENSITY O3.scfp WAS UPDATED ****
             **** ENERGY FILE WAS UPDATED (O3.en.tmp) ****
             **** THE GBW FILE WAS UPDATED (O3.gbw) ****
             **** DENSITY O3.scfp WAS UPDATED ****
----------------
ORBITAL ENERGIES
----------------

  NO   OCC          E(Eh)            E(eV) 
   0   2.0000     -19.055084      -518.5152 
   1   2.0000     -18.878521      -513.7107 
   2   2.0000     -18.878401      -513.7074 
   3   2.0000      -1.272220       -34.6189 
   4   2.0000      -1.013227       -27.5713 
   5   2.0000      -0.680176       -18.5085 
   6   2.0000      -0.556417       -15.1409 
   7   2.0000      -0.530965       -14.4483 
   8   2.0000      -0.529675       -14.4132 
   9   2.0000      -0.329579        -8.9683 
  10   2.0000      -0.287837        -7.8325 
  11   2.0000      -0.276703        -7.5295 
  12   0.0000      -0.211142        -5.7455 
  13   0.0000       0.050545         1.3754 
  14   0.0000       0.136866         3.7243 
  15   0.0000       0.620791        16.8926 
  16   0.0000       0.727760        19.8034 
  17   0.0000       0.746034        20.3006 
  18   0.0000       0.746830        20.3223 
  19   0.0000       0.785539        21.3756 
  20   0.0000       0.843577        22.9549 
  21   0.0000       0.861162        23.4334 
  22   0.0000       0.907992        24.7077 
  23   0.0000       0.932321        25.3697 
  24   0.0000       1.003699        27.3120 
  25   0.0000       1.122318        30.5398 
  26   0.0000       1.140266        31.0282 
  27   0.0000       1.883018        51.2395 
  28   0.0000       1.970973        53.6329 
  29   0.0000       2.057684        55.9924 
  30   0.0000       2.395812        65.1934 
  31   0.0000       2.399627        65.2972 
  32   0.0000       2.458537        66.9002 
  33   0.0000       2.475267        67.3555 
  34   0.0000       2.496061        67.9213 
  35   0.0000       2.594300        70.5945 
  36   0.0000       2.742207        74.6192 
  37   0.0000       2.993786        81.4651 
  38   0.0000       3.163009        86.0699 
  39   0.0000       3.230800        87.9145 
  40   0.0000       3.650212        99.3273 
  41   0.0000       3.738491       101.7295 

                    ********************************
                    * MULLIKEN POPULATION ANALYSIS *
                    ********************************

-----------------------
MULLIKEN ATOMIC CHARGES
-----------------------
   0 O :   -0.095886
   1 O :    0.191752
   2 O :   -0.095866
Sum of atomic charges:    0.0000000

--------------------------------
MULLIKEN REDUCED ORBITAL CHARGES
--------------------------------
  0 O s       :     3.930447  s :     3.930447
      pz      :     1.299627  p :     4.141322
      px      :     0.930577
      py      :     1.911118
      dz2     :     0.003266  d :     0.024117
      dxz     :     0.006451
      dyz     :     0.000014
      dx2y2   :     0.009666
      dxy     :     0.004720
  1 O s       :     3.807211  s :     3.807211
      pz      :     1.370243  p :     3.937483
      px      :     1.171447
      py      :     1.395793
      dz2     :     0.005816  d :     0.063553
      dxz     :     0.011110
      dyz     :     0.006481
      dx2y2   :     0.021082
      dxy     :     0.019065
  2 O s       :     3.930447  s :     3.930447
      pz      :     1.299610  p :     4.141301
      px      :     1.663478
      py      :     1.178213
      dz2     :     0.003266  d :     0.024118
      dxz     :     0.001556
      dyz     :     0.004909
      dx2y2   :     0.006020
      dxy     :     0.008368


                     *******************************
                     * LOEWDIN POPULATION ANALYSIS *
                     *******************************

----------------------
LOEWDIN ATOMIC CHARGES
----------------------
   0 O :   -0.132641
   1 O :    0.265264
   2 O :   -0.132623

-------------------------------
LOEWDIN REDUCED ORBITAL CHARGES
-------------------------------
  0 O s       :     3.745729  s :     3.745729
      pz      :     1.310537  p :     4.339319
      px      :     1.125110
      py      :     1.903673
      dz2     :     0.007757  d :     0.047593
      dxz     :     0.009023
      dyz     :     0.000017
      dx2y2   :     0.022778
      dxy     :     0.008018
  1 O s       :     3.533898  s :     3.533898
      pz      :     1.333975  p :     4.076461
      px      :     1.271284
      py      :     1.471202
      dz2     :     0.012671  d :     0.124377
      dxz     :     0.018130
      dyz     :     0.008757
      dx2y2   :     0.044498
      dxy     :     0.040322
  2 O s       :     3.745722  s :     3.745722
      pz      :     1.310520  p :     4.339305
      px      :     1.702349
      py      :     1.326436
      dz2     :     0.007757  d :     0.047596
      dxz     :     0.002181
      dyz     :     0.006860
      dx2y2   :     0.012579
      dxy     :     0.018219


                      *****************************
                      * MAYER POPULATION ANALYSIS *
                      *****************************

  NA   - Mulliken gross atomic population
  ZA   - Total nuclear charge
  QA   - Mulliken gross atomic charge
  VA   - Mayer's total valence
  BVA  - Mayer's bonded valence
  FA   - Mayer's free valence

  ATOM       NA         ZA         QA         VA         BVA        FA
  0 O      8.0959     8.0000    -0.0959     1.8762     1.8762     0.0000
  1 O      7.8082     8.0000     0.1918     2.6469     2.6469     0.0000
  2 O      8.0959     8.0000    -0.0959     1.8762     1.8762     0.0000

  Mayer bond orders larger than 0.100000
B(  0-O ,  1-O ) :   1.3235 B(  0-O ,  2-O ) :   0.5527 B(  1-O ,  2-O ) :   1.3235 


-------
TIMINGS
-------

Total SCF time: 0 days 0 hours 0 min 0 sec 

Total time                  ....       0.999 sec
Sum of individual times     ....       0.947 sec  ( 94.8%)

Fock matrix formation       ....       0.714 sec  ( 71.5%)
  Split-RI-J                ....       0.100 sec  ( 14.0% of F)
  XC integration            ....       0.608 sec  ( 85.1% of F)
    Basis function eval.    ....       0.203 sec  ( 33.4% of XC)
    Density eval.           ....       0.148 sec  ( 24.3% of XC)
    XC-Functional eval.     ....       0.111 sec  ( 18.2% of XC)
    XC-Potential eval.      ....       0.095 sec  ( 15.6% of XC)
Diagonalization             ....       0.002 sec  (  0.2%)
Density matrix formation    ....       0.000 sec  (  0.0%)
Population analysis         ....       0.001 sec  (  0.1%)
Initial guess               ....       0.114 sec  ( 11.4%)
Orbital Transformation      ....       0.000 sec  (  0.0%)
Orbital Orthonormalization  ....       0.000 sec  (  0.0%)
DIIS solution               ....       0.001 sec  (  0.1%)
SOSCF solution              ....       0.001 sec  (  0.1%)
Grid generation             ....       0.114 sec  ( 11.4%)

Maximum memory used throughout the entire SCF-calculation: 10.8 MB

-------------------------   --------------------
FINAL SINGLE POINT ENERGY      -225.273742210938
-------------------------   --------------------

Storing actual gbw-file in O3.001.gbw ... done

                            ***************************************
                            *     ORCA property calculations      *
                            ***************************************

                                    ---------------------
                                    Active property flags
                                    ---------------------
   (+) Dipole Moment


------------------------------------------------------------------------------
                       ORCA ELECTRIC PROPERTIES CALCULATION
------------------------------------------------------------------------------

Dipole Moment Calculation                       ... on
Quadrupole Moment Calculation                   ... off
Polarizability Calculation                      ... off
GBWName                                         ... O3.gbw
Electron density                                ... O3.scfp
The origin for moment calculation is the CENTER OF MASS  = ( 1.948545,  0.693214  0.000000)

-------------
DIPOLE MOMENT
-------------
                                X             Y             Z
Electronic contribution:      0.11906      -0.19932      -0.00000
Nuclear contribution   :      0.00000      -0.00000       0.00000
                        -----------------------------------------
Total Dipole Moment    :      0.11906      -0.19932      -0.00000
                        -----------------------------------------
Magnitude (a.u.)       :      0.23217
Magnitude (Debye)      :      0.59012



--------------------
Rotational spectrum 
--------------------
 
Rotational constants in cm-1:     3.848229     0.457263     0.408700 
Rotational constants in MHz : 115366.999455 13708.399370 12252.504482 

 Dipole components along the rotational axes: 
x,y,z [a.u.] :    -0.000046    -0.232168    -0.000000 
x,y,z [Debye]:    -0.000116    -0.590125    -0.000000 

 

         *************************************************************
                                TRAJECTORY STEP   2
                  R  : 117.32967656
         *************************************************************
---------------------------------
CARTESIAN COORDINATES (ANGSTROEM)
---------------------------------
  O      0.000000    0.000000    0.000000
  O      1.250149    0.000000    0.000000
  O      1.824099    1.110596    0.000000

----------------------------
CARTESIAN COORDINATES (A.U.)
----------------------------
  NO LB      ZA    FRAG     MASS         X           Y           Z
   0 O     8.0000    0    15.999    0.000000    0.000000    0.000000
   1 O     8.0000    0    15.999    2.362439    0.000000    0.000000
   2 O     8.0000    0    15.999    3.447047    2.098722    0.000000

--------------------------------
INTERNAL COORDINATES (ANGSTROEM)
--------------------------------
 O      0   0   0     0.000000000000     0.00000000     0.00000000
 O      1   0   0     1.250148781330     0.00000000     0.00000000
 O      2   1   0     1.250136431439   117.32967656     0.00000000

---------------------------
INTERNAL COORDINATES (A.U.)
---------------------------
 O      0   0   0     0.000000000000     0.00000000     0.00000000
 O      1   0   0     2.362438823369     0.00000000     0.00000000
 O      2   1   0     2.362415485457   117.32967656     0.00000000

------------------------------------------------------------------------------
                   ___                                                        
                  /   \      - P O W E R E D   B Y -                         
                 /     \                                                     
                 |  |  |   _    _      __       _____    __    __             
                 |  |  |  | |  | |    /  \     |  _  \  |  |  /  |          
                  \  \/   | |  | |   /    \    | | | |  |  | /  /          
                 / \  \   | |__| |  /  /\  \   | |_| |  |  |/  /          
                |  |  |   |  __  | /  /__\  \  |    /   |      \           
                |  |  |   | |  | | |   __   |  |    \   |  |\   \          
                \     /   | |  | | |  |  |  |  | |\  \  |  | \   \       
                 \___/    |_|  |_| |__|  |__|  |_| \__\ |__|  \__/        
                                                                              
                      - O R C A' S   B I G   F R I E N D -                    
                                      &                                       
                       - I N T E G R A L  F E E D E R -                       
                                                                              
 v1 FN, 2020, v2 2021                                                         
------------------------------------------------------------------------------


Reading SHARK input file O3.SHARKINP.tmp ... ok
----------------------
SHARK INTEGRAL PACKAGE
----------------------

Number of atoms                             ...      3
Number of basis functions                   ...     42
Number of shells                            ...     18
Maximum angular momentum                    ...      2
Integral batch strategy                     ... SHARK/LIBINT Hybrid
RI-J (if used) integral strategy            ... SPLIT-RIJ (Revised 2003 algorithm where possible)
Printlevel                                  ...      1
Contraction scheme used                     ... SEGMENTED contraction
Coulomb Range Separation                    ... NOT USED
Exchange Range Separation                   ... NOT USED
Finite Nucleus Model                        ... NOT USED
Auxiliary Coulomb fitting basis             ... AVAILABLE
   # of basis functions in Aux-J            ...    147
   # of shells in Aux-J                     ...     45
   Maximum angular momentum in Aux-J        ...      4
Auxiliary J/K fitting basis                 ... NOT available
Auxiliary Correlation fitting basis         ... NOT available
Auxiliary 'external' fitting basis          ... NOT available
Integral threshold                          ...     1.000000e-10
Primitive cut-off                           ...     1.000000e-11
Primitive pair pre-selection threshold      ...     1.000000e-11

Calculating pre-screening integrals         ... done (  0.0 sec) Dimension = 18
Organizing shell pair data                  ... done (  0.0 sec)
Shell pair information
Total number of shell pairs                 ...       171
Shell pairs after pre-screening             ...       170
Total number of primitive shell pairs       ...       705
Primitive shell pairs kept                  ...       594
          la=0 lb=0:     44 shell pairs
          la=1 lb=0:     54 shell pairs
          la=1 lb=1:     21 shell pairs
          la=2 lb=0:     27 shell pairs
          la=2 lb=1:     18 shell pairs
          la=2 lb=2:      6 shell pairs

Calculating one electron integrals          ... done (  0.0 sec)
Calculating RI/J V-Matrix + Cholesky decomp.... done (  0.0 sec)
Calculating Nuclear repulsion               ... done (  0.0 sec) ENN=     70.040081734252 Eh

SHARK setup successfully completed in   0.1 seconds

Maximum memory used throughout the entire GTOINT-calculation: 8.9 MB

Diagonalization of the overlap matrix:
Smallest eigenvalue                        ... 1.196e-02
Time for diagonalization                   ...    0.001 sec
Threshold for overlap eigenvalues          ... 1.000e-08
Number of eigenvalues below threshold      ... 0
Time for construction of square roots      ...    0.000 sec
Total time needed                          ...    0.001 sec

-------------------
DFT GRID GENERATION
-------------------

General Integration Accuracy     IntAcc      ... 4.388
Radial Grid Type                 RadialGrid  ... OptM3 with GC (2021)
Angular Grid (max. ang.)         AngularGrid ... 4 (Lebedev-302)
Angular grid pruning method      GridPruning ... 4 (adaptive)
Weight generation scheme         WeightScheme... Becke
Basis function cutoff            BFCut       ... 1.0000e-10
Integration weight cutoff        WCut        ... 1.0000e-14
Angular grids for H and He will be reduced by one unit
Partially contracted basis set               ... off
Rotationally invariant grid construction     ... off

Total number of grid points                  ...    18381
Total number of batches                      ...      289
Average number of points per batch           ...       63
Average number of grid points per atom       ...     6127
Time for grid setup =    0.088 sec

--------------
SCF ITERATIONS
--------------
ITER       Energy         Delta-E        Max-DP      RMS-DP      [F,P]     Damp
               ***  Starting incremental Fock matrix formation  ***
                      *** Initiating the SOSCF procedure ***
                      *** Re-Reading the Fockian *** 
                      *** Removing any level shift *** 
ITER      Energy       Delta-E        Grad      Rot      Max-DP    RMS-DP
  0   -225.27339373 -225.2733937316  0.003070  0.003070  0.006219  0.000509
               *** Restarting incremental Fock matrix formation ***
  1   -225.27358463  -0.0001909018  0.000889  0.005122  0.005305  0.000362
  2   -225.27354050   0.0000441334  0.004578  0.006120  0.005380  0.000367
  3   -225.27357687  -0.0000363710  0.001526  0.003263  0.004494  0.000397
  4   -225.27355266   0.0000242085  0.003612  0.003114  0.004153  0.000217
  5   -225.27359456  -0.0000418970  0.000666  0.002293  0.002551  0.000255
  6   -225.27359733  -0.0000027707  0.000366  0.000994  0.001146  0.000113
  7   -225.27359983  -0.0000025048  0.000029  0.000030  0.000038  0.000003
                 **** Energy Check signals convergence ****
              ***Rediagonalizing the Fockian in SOSCF/NRSCF***

               *****************************************************
               *                     SUCCESS                       *
               *           SCF CONVERGED AFTER   8 CYCLES          *
               *****************************************************

Total Energy       :         -225.27359984 Eh           -6130.00630 eV
  Last Energy change         ...   -5.8898e-09  Tolerance :   1.0000e-06
  Last MAX-Density change    ...    4.2052e-06  Tolerance :   1.0000e-05
             **** THE GBW FILE WAS UPDATED (O3.gbw) ****
             **** DENSITY O3.scfp WAS UPDATED ****
             **** ENERGY FILE WAS UPDATED (O3.en.tmp) ****
             **** THE GBW FILE WAS UPDATED (O3.gbw) ****
             **** DENSITY O3.scfp WAS UPDATED ****
Total SCF time: 0 days 0 hours 0 min 0 sec 

Maximum memory used throughout the entire SCF-calculation: 10.8 MB

-------------------------   --------------------
FINAL SINGLE POINT ENERGY      -225.273599840722
-------------------------   --------------------

Storing actual gbw-file in O3.002.gbw ... done

                            ***************************************
                            *     ORCA property calculations      *
                            ***************************************

                                    ---------------------
                                    Active property flags
                                    ---------------------
   (+) Dipole Moment


------------------------------------------------------------------------------
                       ORCA ELECTRIC PROPERTIES CALCULATION
------------------------------------------------------------------------------

Dipole Moment Calculation                       ... on
Quadrupole Moment Calculation                   ... off
Polarizability Calculation                      ... off
GBWName                                         ... O3.gbw
Electron density                                ... O3.scfp
The origin for moment calculation is the CENTER OF MASS  = ( 1.936495,  0.699574  0.000000)

-------------
DIPOLE MOMENT
-------------
                                X             Y             Z
Electronic contribution:      0.12543      -0.20590       0.00000
Nuclear contribution   :     -0.00000       0.00000       0.00000
                        -----------------------------------------
Total Dipole Moment    :      0.12543      -0.20590       0.00000
                        -----------------------------------------
Magnitude (a.u.)       :      0.24109
Magnitude (Debye)      :      0.61281



--------------------
Rotational spectrum 
--------------------
 
Rotational constants in cm-1:     3.739358     0.462059     0.411243 
Rotational constants in MHz : 112103.135092 13852.166115 12328.748647 

 Dipole components along the rotational axes: 
x,y,z [a.u.] :    -0.000059    -0.241094     0.000000 
x,y,z [Debye]:    -0.000149    -0.612812     0.000000 

 

         *************************************************************
                                TRAJECTORY STEP   3
                  R  : 116.33827045
         *************************************************************
---------------------------------
CARTESIAN COORDINATES (ANGSTROEM)
---------------------------------
  O      0.000000    0.000000    0.000000
  O      1.250149    0.000000    0.000000
  O      1.804797    1.120360    0.000000

----------------------------
CARTESIAN COORDINATES (A.U.)
----------------------------
  NO LB      ZA    FRAG     MASS         X           Y           Z
   0 O     8.0000    0    15.999    0.000000    0.000000    0.000000
   1 O     8.0000    0    15.999    2.362439    0.000000    0.000000
   2 O     8.0000    0    15.999    3.410571    2.117174    0.000000

--------------------------------
INTERNAL COORDINATES (ANGSTROEM)
--------------------------------
 O      0   0   0     0.000000000000     0.00000000     0.00000000
 O      1   0   0     1.250148781330     0.00000000     0.00000000
 O      2   1   0     1.250136431439   116.33827045     0.00000000

---------------------------
INTERNAL COORDINATES (A.U.)
---------------------------
 O      0   0   0     0.000000000000     0.00000000     0.00000000
 O      1   0   0     2.362438823369     0.00000000     0.00000000
 O      2   1   0     2.362415485457   116.33827045     0.00000000

------------------------------------------------------------------------------
                   ___                                                        
                  /   \      - P O W E R E D   B Y -                         
                 /     \                                                     
                 |  |  |   _    _      __       _____    __    __             
                 |  |  |  | |  | |    /  \     |  _  \  |  |  /  |          
                  \  \/   | |  | |   /    \    | | | |  |  | /  /          
                 / \  \   | |__| |  /  /\  \   | |_| |  |  |/  /          
                |  |  |   |  __  | /  /__\  \  |    /   |      \           
                |  |  |   | |  | | |   __   |  |    \   |  |\   \          
                \     /   | |  | | |  |  |  |  | |\  \  |  | \   \       
                 \___/    |_|  |_| |__|  |__|  |_| \__\ |__|  \__/        
                                                                              
                      - O R C A' S   B I G   F R I E N D -                    
                                      &                                       
                       - I N T E G R A L  F E E D E R -                       
                                                                              
 v1 FN, 2020, v2 2021                                                         
------------------------------------------------------------------------------


Reading SHARK input file O3.SHARKINP.tmp ... ok
----------------------
SHARK INTEGRAL PACKAGE
----------------------

Number of atoms                             ...      3
Number of basis functions                   ...     42
Number of shells                            ...     18
Maximum angular momentum                    ...      2
Integral batch strategy                     ... SHARK/LIBINT Hybrid
RI-J (if used) integral strategy            ... SPLIT-RIJ (Revised 2003 algorithm where possible)
Printlevel                                  ...      1
Contraction scheme used                     ... SEGMENTED contraction
Coulomb Range Separation                    ... NOT USED
Exchange Range Separation                   ... NOT USED
Finite Nucleus Model                        ... NOT USED
Auxiliary Coulomb fitting basis             ... AVAILABLE
   # of basis functions in Aux-J            ...    147
   # of shells in Aux-J                     ...     45
   Maximum angular momentum in Aux-J        ...      4
Auxiliary J/K fitting basis                 ... NOT available
Auxiliary Correlation fitting basis         ... NOT available
Auxiliary 'external' fitting basis          ... NOT available
Integral threshold                          ...     1.000000e-10
Primitive cut-off                           ...     1.000000e-11
Primitive pair pre-selection threshold      ...     1.000000e-11

Calculating pre-screening integrals         ... done (  0.0 sec) Dimension = 18
Organizing shell pair data                  ... done (  0.0 sec)
Shell pair information
Total number of shell pairs                 ...       171
Shell pairs after pre-screening             ...       170
Total number of primitive shell pairs       ...       705
Primitive shell pairs kept                  ...       594
          la=0 lb=0:     44 shell pairs
          la=1 lb=0:     54 shell pairs
          la=1 lb=1:     21 shell pairs
          la=2 lb=0:     27 shell pairs
          la=2 lb=1:     18 shell pairs
          la=2 lb=2:      6 shell pairs

Calculating one electron integrals          ... done (  0.0 sec)
Calculating RI/J V-Matrix + Cholesky decomp.... done (  0.0 sec)
Calculating Nuclear repulsion               ... done (  0.0 sec) ENN=     70.124658577158 Eh

SHARK setup successfully completed in   0.1 seconds

Maximum memory used throughout the entire GTOINT-calculation: 8.9 MB

Diagonalization of the overlap matrix:
Smallest eigenvalue                        ... 1.192e-02
Time for diagonalization                   ...    0.000 sec
Threshold for overlap eigenvalues          ... 1.000e-08
Number of eigenvalues below threshold      ... 0
Time for construction of square roots      ...    0.000 sec
Total time needed                          ...    0.001 sec

-------------------
DFT GRID GENERATION
-------------------

General Integration Accuracy     IntAcc      ... 4.388
Radial Grid Type                 RadialGrid  ... OptM3 with GC (2021)
Angular Grid (max. ang.)         AngularGrid ... 4 (Lebedev-302)
Angular grid pruning method      GridPruning ... 4 (adaptive)
Weight generation scheme         WeightScheme... Becke
Basis function cutoff            BFCut       ... 1.0000e-10
Integration weight cutoff        WCut        ... 1.0000e-14
Angular grids for H and He will be reduced by one unit
Partially contracted basis set               ... off
Rotationally invariant grid construction     ... off

Total number of grid points                  ...    18379
Total number of batches                      ...      289
Average number of points per batch           ...       63
Average number of grid points per atom       ...     6126
Time for grid setup =    0.100 sec

--------------
SCF ITERATIONS
--------------
ITER       Energy         Delta-E        Max-DP      RMS-DP      [F,P]     Damp
               ***  Starting incremental Fock matrix formation  ***
                      *** Initiating the SOSCF procedure ***
                      *** Re-Reading the Fockian *** 
                      *** Removing any level shift *** 
ITER      Energy       Delta-E        Grad      Rot      Max-DP    RMS-DP
  0   -225.27308555 -225.2730855458  0.003056  0.003056  0.006409  0.000509
               *** Restarting incremental Fock matrix formation ***
  1   -225.27327660  -0.0001910579  0.000893  0.005378  0.005525  0.000370
  2   -225.27322713   0.0000494731  0.004792  0.006274  0.005523  0.000366
  3   -225.27327053  -0.0000434036  0.001474  0.003356  0.004649  0.000395
  4   -225.27324194   0.0000285935  0.003718  0.003124  0.004176  0.000215
  5   -225.27328754  -0.0000455971  0.000589  0.002127  0.002349  0.000239
  6   -225.27328963  -0.0000020873  0.000356  0.000943  0.001074  0.000108
  7   -225.27329193  -0.0000023097  0.000021  0.000022  0.000026  0.000002
                 **** Energy Check signals convergence ****
              ***Rediagonalizing the Fockian in SOSCF/NRSCF***

               *****************************************************
               *                     SUCCESS                       *
               *           SCF CONVERGED AFTER   8 CYCLES          *
               *****************************************************

Total Energy       :         -225.27329194 Eh           -6129.99792 eV
  Last Energy change         ...   -2.8772e-09  Tolerance :   1.0000e-06
  Last MAX-Density change    ...    1.0593e-05  Tolerance :   1.0000e-05
             **** THE GBW FILE WAS UPDATED (O3.gbw) ****
             **** DENSITY O3.scfp WAS UPDATED ****
             **** ENERGY FILE WAS UPDATED (O3.en.tmp) ****
             **** THE GBW FILE WAS UPDATED (O3.gbw) ****
             **** DENSITY O3.scfp WAS UPDATED ****
Total SCF time: 0 days 0 hours 0 min 0 sec 

Maximum memory used throughout the entire SCF-calculation: 10.8 MB

-------------------------   --------------------
FINAL SINGLE POINT ENERGY      -225.273291937763
-------------------------   --------------------

Storing actual gbw-file in O3.003.gbw ... done

                            ***************************************
                            *     ORCA property calculations      *
                            ***************************************

                                    ---------------------
                                    Active property flags
                                    ---------------------
   (+) Dipole Moment


------------------------------------------------------------------------------
                       ORCA ELECTRIC PROPERTIES CALCULATION
------------------------------------------------------------------------------

Dipole Moment Calculation                       ... on
Quadrupole Moment Calculation                   ... off
Polarizability Calculation                      ... off
GBWName                                         ... O3.gbw
Electron density                                ... O3.scfp
The origin for moment calculation is the CENTER OF MASS  = ( 1.924337,  0.705725  0.000000)

-------------
DIPOLE MOMENT
-------------
                                X             Y             Z
Electronic contribution:      0.13187      -0.21235      -0.00000
Nuclear contribution   :      0.00000       0.00000       0.00000
                        -----------------------------------------
Total Dipole Moment    :      0.13187      -0.21235      -0.00000
                        -----------------------------------------
Magnitude (a.u.)       :      0.24996
Magnitude (Debye)      :      0.63535



--------------------
Rotational spectrum 
--------------------
 
Rotational constants in cm-1:     3.635579     0.467000     0.413841 
Rotational constants in MHz : 108991.930692 14000.313210 12406.645481 

 Dipole components along the rotational axes: 
x,y,z [a.u.] :    -0.000045    -0.249960    -0.000000 
x,y,z [Debye]:    -0.000114    -0.635349    -0.000000 

 

         *************************************************************
                                TRAJECTORY STEP   4
                  R  : 115.34686434
         *************************************************************
---------------------------------
CARTESIAN COORDINATES (ANGSTROEM)
---------------------------------
  O      0.000000    0.000000    0.000000
  O      1.250149    0.000000    0.000000
  O      1.785329    1.129789    0.000000

----------------------------
CARTESIAN COORDINATES (A.U.)
----------------------------
  NO LB      ZA    FRAG     MASS         X           Y           Z
   0 O     8.0000    0    15.999    0.000000    0.000000    0.000000
   1 O     8.0000    0    15.999    2.362439    0.000000    0.000000
   2 O     8.0000    0    15.999    3.373782    2.134992    0.000000

--------------------------------
INTERNAL COORDINATES (ANGSTROEM)
--------------------------------
 O      0   0   0     0.000000000000     0.00000000     0.00000000
 O      1   0   0     1.250148781330     0.00000000     0.00000000
 O      2   1   0     1.250136431439   115.34686434     0.00000000

---------------------------
INTERNAL COORDINATES (A.U.)
---------------------------
 O      0   0   0     0.000000000000     0.00000000     0.00000000
 O      1   0   0     2.362438823369     0.00000000     0.00000000
 O      2   1   0     2.362415485457   115.34686434     0.00000000

------------------------------------------------------------------------------
                   ___                                                        
                  /   \      - P O W E R E D   B Y -                         
                 /     \                                                     
                 |  |  |   _    _      __       _____    __    __             
                 |  |  |  | |  | |    /  \     |  _  \  |  |  /  |          
                  \  \/   | |  | |   /    \    | | | |  |  | /  /          
                 / \  \   | |__| |  /  /\  \   | |_| |  |  |/  /          
                |  |  |   |  __  | /  /__\  \  |    /   |      \           
                |  |  |   | |  | | |   __   |  |    \   |  |\   \          
                \     /   | |  | | |  |  |  |  | |\  \  |  | \   \       
                 \___/    |_|  |_| |__|  |__|  |_| \__\ |__|  \__/        
                                                                              
                      - O R C A' S   B I G   F R I E N D -                    
                                      &                                       
                       - I N T E G R A L  F E E D E R -                       
                                                                              
 v1 FN, 2020, v2 2021                                                         
------------------------------------------------------------------------------


Reading SHARK input file O3.SHARKINP.tmp ... ok
----------------------
SHARK INTEGRAL PACKAGE
----------------------

Number of atoms                             ...      3
Number of basis functions                   ...     42
Number of shells                            ...     18
Maximum angular momentum                    ...      2
Integral batch strategy                     ... SHARK/LIBINT Hybrid
RI-J (if used) integral strategy            ... SPLIT-RIJ (Revised 2003 algorithm where possible)
Printlevel                                  ...      1
Contraction scheme used                     ... SEGMENTED contraction
Coulomb Range Separation                    ... NOT USED
Exchange Range Separation                   ... NOT USED
Finite Nucleus Model                        ... NOT USED
Auxiliary Coulomb fitting basis             ... AVAILABLE
   # of basis functions in Aux-J            ...    147
   # of shells in Aux-J                     ...     45
   Maximum angular momentum in Aux-J        ...      4
Auxiliary J/K fitting basis                 ... NOT available
Auxiliary Correlation fitting basis         ... NOT available
Auxiliary 'external' fitting basis          ... NOT available
Integral threshold                          ...     1.000000e-10
Primitive cut-off                           ...     1.000000e-11
Primitive pair pre-selection threshold      ...     1.000000e-11

Calculating pre-screening integrals         ... done (  0.0 sec) Dimension = 18
Organizing shell pair data                  ... done (  0.0 sec)
Shell pair information
Total number of shell pairs                 ...       171
Shell pairs after pre-screening             ...       170
Total number of primitive shell pairs       ...       705
Primitive shell pairs kept                  ...       594
          la=0 lb=0:     44 shell pairs
          la=1 lb=0:     54 shell pairs
          la=1 lb=1:     21 shell pairs
          la=2 lb=0:     27 shell pairs
          la=2 lb=1:     18 shell pairs
          la=2 lb=2:      6 shell pairs

Calculating one electron integrals          ... done (  0.0 sec)
Calculating RI/J V-Matrix + Cholesky decomp.... done (  0.0 sec)
Calculating Nuclear repulsion               ... done (  0.0 sec) ENN=     70.211348661754 Eh

SHARK setup successfully completed in   0.1 seconds

Maximum memory used throughout the entire GTOINT-calculation: 8.9 MB

Diagonalization of the overlap matrix:
Smallest eigenvalue                        ... 1.189e-02
Time for diagonalization                   ...    0.000 sec
Threshold for overlap eigenvalues          ... 1.000e-08
Number of eigenvalues below threshold      ... 0
Time for construction of square roots      ...    0.000 sec
Total time needed                          ...    0.001 sec

-------------------
DFT GRID GENERATION
-------------------

General Integration Accuracy     IntAcc      ... 4.388
Radial Grid Type                 RadialGrid  ... OptM3 with GC (2021)
Angular Grid (max. ang.)         AngularGrid ... 4 (Lebedev-302)
Angular grid pruning method      GridPruning ... 4 (adaptive)
Weight generation scheme         WeightScheme... Becke
Basis function cutoff            BFCut       ... 1.0000e-10
Integration weight cutoff        WCut        ... 1.0000e-14
Angular grids for H and He will be reduced by one unit
Partially contracted basis set               ... off
Rotationally invariant grid construction     ... off

Total number of grid points                  ...    18380
Total number of batches                      ...      289
Average number of points per batch           ...       63
Average number of grid points per atom       ...     6127
Time for grid setup =    0.093 sec

--------------
SCF ITERATIONS
--------------
ITER       Energy         Delta-E        Max-DP      RMS-DP      [F,P]     Damp
               ***  Starting incremental Fock matrix formation  ***
                      *** Initiating the SOSCF procedure ***
                      *** Re-Reading the Fockian *** 
                      *** Removing any level shift *** 
ITER      Energy       Delta-E        Grad      Rot      Max-DP    RMS-DP
  0   -225.27260623 -225.2726062322  0.003041  0.003041  0.006598  0.000508
               *** Restarting incremental Fock matrix formation ***
  1   -225.27279745  -0.0001912226  0.000894  0.005499  0.005639  0.000374
  2   -225.27274558   0.0000518777  0.004880  0.006368  0.005601  0.000367
  3   -225.27279184  -0.0000462585  0.001470  0.003423  0.004741  0.000395
  4   -225.27276100   0.0000308367  0.003789  0.003147  0.004210  0.000215
  5   -225.27280877  -0.0000477692  0.000557  0.001795  0.002228  0.000231
  6   -225.27281064  -0.0000018733  0.000315  0.000810  0.001022  0.000105
  7   -225.27281285  -0.0000022089  0.000018  0.000019  0.000023  0.000002
                 **** Energy Check signals convergence ****
              ***Rediagonalizing the Fockian in SOSCF/NRSCF***

               *****************************************************
               *                     SUCCESS                       *
               *           SCF CONVERGED AFTER   8 CYCLES          *
               *****************************************************

Total Energy       :         -225.27281285 Eh           -6129.98488 eV
  Last Energy change         ...   -2.1120e-09  Tolerance :   1.0000e-06
  Last MAX-Density change    ...    1.0077e-05  Tolerance :   1.0000e-05
             **** THE GBW FILE WAS UPDATED (O3.gbw) ****
             **** DENSITY O3.scfp WAS UPDATED ****
             **** ENERGY FILE WAS UPDATED (O3.en.tmp) ****
             **** THE GBW FILE WAS UPDATED (O3.gbw) ****
             **** DENSITY O3.scfp WAS UPDATED ****
Total SCF time: 0 days 0 hours 0 min 0 sec 

Maximum memory used throughout the entire SCF-calculation: 10.8 MB

-------------------------   --------------------
FINAL SINGLE POINT ENERGY      -225.272812852369
-------------------------   --------------------

Storing actual gbw-file in O3.004.gbw ... done

                            ***************************************
                            *     ORCA property calculations      *
                            ***************************************

                                    ---------------------
                                    Active property flags
                                    ---------------------
   (+) Dipole Moment


------------------------------------------------------------------------------
                       ORCA ELECTRIC PROPERTIES CALCULATION
------------------------------------------------------------------------------

Dipole Moment Calculation                       ... on
Quadrupole Moment Calculation                   ... off
Polarizability Calculation                      ... off
GBWName                                         ... O3.gbw
Electron density                                ... O3.scfp
The origin for moment calculation is the CENTER OF MASS  = ( 1.912074,  0.711664  0.000000)

-------------
DIPOLE MOMENT
-------------
                                X             Y             Z
Electronic contribution:      0.13842      -0.21867      -0.00000
Nuclear contribution   :     -0.00000       0.00000       0.00000
                        -----------------------------------------
Total Dipole Moment    :      0.13842      -0.21867      -0.00000
                        -----------------------------------------
Magnitude (a.u.)       :      0.25880
Magnitude (Debye)      :      0.65781



--------------------
Rotational spectrum 
--------------------
 
Rotational constants in cm-1:     3.536584     0.472093     0.416495 
Rotational constants in MHz : 106024.122389 14152.979693 12486.215969 

 Dipole components along the rotational axes: 
x,y,z [a.u.] :    -0.000040    -0.258796    -0.000000 
x,y,z [Debye]:    -0.000102    -0.657808    -0.000000 

 

         *************************************************************
                                TRAJECTORY STEP   5
                  R  : 114.35545823
         *************************************************************
---------------------------------
CARTESIAN COORDINATES (ANGSTROEM)
---------------------------------
  O      0.000000    0.000000    0.000000
  O      1.250149    0.000000    0.000000
  O      1.765700    1.138880    0.000000

----------------------------
CARTESIAN COORDINATES (A.U.)
----------------------------
  NO LB      ZA    FRAG     MASS         X           Y           Z
   0 O     8.0000    0    15.999    0.000000    0.000000    0.000000
   1 O     8.0000    0    15.999    2.362439    0.000000    0.000000
   2 O     8.0000    0    15.999    3.336690    2.152171    0.000000

--------------------------------
INTERNAL COORDINATES (ANGSTROEM)
--------------------------------
 O      0   0   0     0.000000000000     0.00000000     0.00000000
 O      1   0   0     1.250148781330     0.00000000     0.00000000
 O      2   1   0     1.250136431439   114.35545823     0.00000000

---------------------------
INTERNAL COORDINATES (A.U.)
---------------------------
 O      0   0   0     0.000000000000     0.00000000     0.00000000
 O      1   0   0     2.362438823369     0.00000000     0.00000000
 O      2   1   0     2.362415485457   114.35545823     0.00000000

------------------------------------------------------------------------------
                   ___                                                        
                  /   \      - P O W E R E D   B Y -                         
                 /     \                                                     
                 |  |  |   _    _      __       _____    __    __             
                 |  |  |  | |  | |    /  \     |  _  \  |  |  /  |          
                  \  \/   | |  | |   /    \    | | | |  |  | /  /          
                 / \  \   | |__| |  /  /\  \   | |_| |  |  |/  /          
                |  |  |   |  __  | /  /__\  \  |    /   |      \           
                |  |  |   | |  | | |   __   |  |    \   |  |\   \          
                \     /   | |  | | |  |  |  |  | |\  \  |  | \   \       
                 \___/    |_|  |_| |__|  |__|  |_| \__\ |__|  \__/        
                                                                              
                      - O R C A' S   B I G   F R I E N D -                    
                                      &                                       
                       - I N T E G R A L  F E E D E R -                       
                                                                              
 v1 FN, 2020, v2 2021                                                         
------------------------------------------------------------------------------


Reading SHARK input file O3.SHARKINP.tmp ... ok
----------------------
SHARK INTEGRAL PACKAGE
----------------------

Number of atoms                             ...      3
Number of basis functions                   ...     42
Number of shells                            ...     18
Maximum angular momentum                    ...      2
Integral batch strategy                     ... SHARK/LIBINT Hybrid
RI-J (if used) integral strategy            ... SPLIT-RIJ (Revised 2003 algorithm where possible)
Printlevel                                  ...      1
Contraction scheme used                     ... SEGMENTED contraction
Coulomb Range Separation                    ... NOT USED
Exchange Range Separation                   ... NOT USED
Finite Nucleus Model                        ... NOT USED
Auxiliary Coulomb fitting basis             ... AVAILABLE
   # of basis functions in Aux-J            ...    147
   # of shells in Aux-J                     ...     45
   Maximum angular momentum in Aux-J        ...      4
Auxiliary J/K fitting basis                 ... NOT available
Auxiliary Correlation fitting basis         ... NOT available
Auxiliary 'external' fitting basis          ... NOT available
Integral threshold                          ...     1.000000e-10
Primitive cut-off                           ...     1.000000e-11
Primitive pair pre-selection threshold      ...     1.000000e-11

Calculating pre-screening integrals         ... done (  0.0 sec) Dimension = 18
Organizing shell pair data                  ... done (  0.0 sec)
Shell pair information
Total number of shell pairs                 ...       171
Shell pairs after pre-screening             ...       170
Total number of primitive shell pairs       ...       705
Primitive shell pairs kept                  ...       594
          la=0 lb=0:     44 shell pairs
          la=1 lb=0:     54 shell pairs
          la=1 lb=1:     21 shell pairs
          la=2 lb=0:     27 shell pairs
          la=2 lb=1:     18 shell pairs
          la=2 lb=2:      6 shell pairs

Calculating one electron integrals          ... done (  0.0 sec)
Calculating RI/J V-Matrix + Cholesky decomp.... done (  0.0 sec)
Calculating Nuclear repulsion               ... done (  0.0 sec) ENN=     70.300199735331 Eh

SHARK setup successfully completed in   0.1 seconds

Maximum memory used throughout the entire GTOINT-calculation: 8.9 MB

Diagonalization of the overlap matrix:
Smallest eigenvalue                        ... 1.186e-02
Time for diagonalization                   ...    0.000 sec
Threshold for overlap eigenvalues          ... 1.000e-08
Number of eigenvalues below threshold      ... 0
Time for construction of square roots      ...    0.000 sec
Total time needed                          ...    0.000 sec

-------------------
DFT GRID GENERATION
-------------------

General Integration Accuracy     IntAcc      ... 4.388
Radial Grid Type                 RadialGrid  ... OptM3 with GC (2021)
Angular Grid (max. ang.)         AngularGrid ... 4 (Lebedev-302)
Angular grid pruning method      GridPruning ... 4 (adaptive)
Weight generation scheme         WeightScheme... Becke
Basis function cutoff            BFCut       ... 1.0000e-10
Integration weight cutoff        WCut        ... 1.0000e-14
Angular grids for H and He will be reduced by one unit
Partially contracted basis set               ... off
Rotationally invariant grid construction     ... off

Total number of grid points                  ...    18380
Total number of batches                      ...      289
Average number of points per batch           ...       63
Average number of grid points per atom       ...     6127
Time for grid setup =    0.089 sec

--------------
SCF ITERATIONS
--------------
ITER       Energy         Delta-E        Max-DP      RMS-DP      [F,P]     Damp
               ***  Starting incremental Fock matrix formation  ***
                      *** Initiating the SOSCF procedure ***
                      *** Re-Reading the Fockian *** 
                      *** Removing any level shift *** 
ITER      Energy       Delta-E        Grad      Rot      Max-DP    RMS-DP
  0   -225.27194985 -225.2719498490  0.003025  0.003025  0.006781  0.000507
               *** Restarting incremental Fock matrix formation ***
  1   -225.27214122  -0.0001913747  0.000894  0.005643  0.005780  0.000378
  2   -225.27208632   0.0000548992  0.004988  0.006480  0.005693  0.000368
  3   -225.27213617  -0.0000498446  0.001465  0.003502  0.004843  0.000395
  4   -225.27210258   0.0000335862  0.003874  0.003176  0.004251  0.000216
  5   -225.27215298  -0.0000503997  0.000526  0.002123  0.002180  0.000222
  6   -225.27215463  -0.0000016472  0.000371  0.000952  0.001008  0.000101
  7   -225.27215670  -0.0000020655  0.000015  0.000017  0.000018  0.000002
                 **** Energy Check signals convergence ****
              ***Rediagonalizing the Fockian in SOSCF/NRSCF***

               *****************************************************
               *                     SUCCESS                       *
               *           SCF CONVERGED AFTER   8 CYCLES          *
               *****************************************************

Total Energy       :         -225.27215670 Eh           -6129.96703 eV
  Last Energy change         ...   -1.6095e-09  Tolerance :   1.0000e-06
  Last MAX-Density change    ...    8.2905e-06  Tolerance :   1.0000e-05
             **** THE GBW FILE WAS UPDATED (O3.gbw) ****
             **** DENSITY O3.scfp WAS UPDATED ****
             **** ENERGY FILE WAS UPDATED (O3.en.tmp) ****
             **** THE GBW FILE WAS UPDATED (O3.gbw) ****
             **** DENSITY O3.scfp WAS UPDATED ****
Total SCF time: 0 days 0 hours 0 min 0 sec 

Maximum memory used throughout the entire SCF-calculation: 10.8 MB

-------------------------   --------------------
FINAL SINGLE POINT ENERGY      -225.272156696818
-------------------------   --------------------

Storing actual gbw-file in O3.005.gbw ... done

                            ***************************************
                            *     ORCA property calculations      *
                            ***************************************

                                    ---------------------
                                    Active property flags
                                    ---------------------
   (+) Dipole Moment


------------------------------------------------------------------------------
                       ORCA ELECTRIC PROPERTIES CALCULATION
------------------------------------------------------------------------------

Dipole Moment Calculation                       ... on
Quadrupole Moment Calculation                   ... off
Polarizability Calculation                      ... off
GBWName                                         ... O3.gbw
Electron density                                ... O3.scfp
The origin for moment calculation is the CENTER OF MASS  = ( 1.899710,  0.717390  0.000000)

-------------
DIPOLE MOMENT
-------------
                                X             Y             Z
Electronic contribution:      0.14507      -0.22486       0.00000
Nuclear contribution   :      0.00000       0.00000       0.00000
                        -----------------------------------------
Total Dipole Moment    :      0.14507      -0.22486       0.00000
                        -----------------------------------------
Magnitude (a.u.)       :      0.26759
Magnitude (Debye)      :      0.68017



--------------------
Rotational spectrum 
--------------------
 
Rotational constants in cm-1:     3.442086     0.477341     0.419206 
Rotational constants in MHz : 103191.140872 14310.310891 12567.481379 

 Dipole components along the rotational axes: 
x,y,z [a.u.] :    -0.000035    -0.267595     0.000000 
x,y,z [Debye]:    -0.000090    -0.680172     0.000000 

 

         *************************************************************
                                TRAJECTORY STEP   6
                  R  : 113.36405212
         *************************************************************
---------------------------------
CARTESIAN COORDINATES (ANGSTROEM)
---------------------------------
  O      0.000000    0.000000    0.000000
  O      1.250149    0.000000    0.000000
  O      1.745918    1.147630    0.000000

----------------------------
CARTESIAN COORDINATES (A.U.)
----------------------------
  NO LB      ZA    FRAG     MASS         X           Y           Z
   0 O     8.0000    0    15.999    0.000000    0.000000    0.000000
   1 O     8.0000    0    15.999    2.362439    0.000000    0.000000
   2 O     8.0000    0    15.999    3.299307    2.168706    0.000000

--------------------------------
INTERNAL COORDINATES (ANGSTROEM)
--------------------------------
 O      0   0   0     0.000000000000     0.00000000     0.00000000
 O      1   0   0     1.250148781330     0.00000000     0.00000000
 O      2   1   0     1.250136431439   113.36405212     0.00000000

---------------------------
INTERNAL COORDINATES (A.U.)
---------------------------
 O      0   0   0     0.000000000000     0.00000000     0.00000000
 O      1   0   0     2.362438823369     0.00000000     0.00000000
 O      2   1   0     2.362415485457   113.36405212     0.00000000

------------------------------------------------------------------------------
                   ___                                                        
[...]
Time for grid setup =    0.098 sec

--------------
SCF ITERATIONS
--------------
ITER       Energy         Delta-E        Max-DP      RMS-DP      [F,P]     Damp
               ***  Starting incremental Fock matrix formation  ***
  0   -224.5084608072   0.000000000000 0.00662213  0.00041945  0.0169570 0.7000
                      *** Initiating the SOSCF procedure ***
                      *** Re-Reading the Fockian *** 
                      *** Removing any level shift *** 
ITER      Energy       Delta-E        Grad      Rot      Max-DP    RMS-DP
  1   -224.50885763  -0.0003968254  0.002436  0.002436  0.021659  0.001260
               *** Restarting incremental Fock matrix formation ***
  2   -224.50977350  -0.0009158684  0.001717  0.003175  0.005387  0.000353
  3   -224.50975044   0.0000230644  0.003017  0.002273  0.002853  0.000213
  4   -224.50978595  -0.0000355162  0.000442  0.000436  0.001365  0.000093
  5   -224.50978589   0.0000000669  0.000481  0.000253  0.000826  0.000051
  6   -224.50978732  -0.0000014356  0.000033  0.000038  0.000104  0.000006
                 **** Energy Check signals convergence ****
              ***Rediagonalizing the Fockian in SOSCF/NRSCF***

               *****************************************************
               *                     SUCCESS                       *
               *           SCF CONVERGED AFTER   7 CYCLES          *
               *****************************************************

Total Energy       :         -224.50978733 Eh           -6109.22190 eV
  Last Energy change         ...   -5.5448e-09  Tolerance :   1.0000e-06
  Last MAX-Density change    ...    3.7594e-05  Tolerance :   1.0000e-05
             **** THE GBW FILE WAS UPDATED (O3.gbw) ****
             **** DENSITY O3.scfp WAS UPDATED ****
             **** ENERGY FILE WAS UPDATED (O3.en.tmp) ****
             **** THE GBW FILE WAS UPDATED (O3.gbw) ****
             **** DENSITY O3.scfp WAS UPDATED ****
Total SCF time: 0 days 0 hours 0 min 0 sec 

Maximum memory used throughout the entire SCF-calculation: 10.9 MB

-------------------------   --------------------
FINAL SINGLE POINT ENERGY      -224.509787327143
-------------------------   --------------------

Storing actual gbw-file in O3.079.gbw ... done

                            ***************************************
                            *     ORCA property calculations      *
                            ***************************************

                                    ---------------------
                                    Active property flags
                                    ---------------------
   (+) Dipole Moment


------------------------------------------------------------------------------
                       ORCA ELECTRIC PROPERTIES CALCULATION
------------------------------------------------------------------------------

Dipole Moment Calculation                       ... on
Quadrupole Moment Calculation                   ... off
Polarizability Calculation                      ... off
GBWName                                         ... O3.gbw
Electron density                                ... O3.scfp
The origin for moment calculation is the CENTER OF MASS  = ( 0.980569,  0.516539  0.000000)

-------------
DIPOLE MOMENT
-------------
                                X             Y             Z
Electronic contribution:     -0.14033       0.05246       0.00000
Nuclear contribution   :      0.00000       0.00000       0.00000
                        -----------------------------------------
Total Dipole Moment    :     -0.14033       0.05246       0.00000
                        -----------------------------------------
Magnitude (a.u.)       :      0.14981
Magnitude (Debye)      :      0.38080



--------------------
Rotational spectrum 
--------------------
 
Rotational constants in cm-1:     2.749658     1.152595     0.812157 
Rotational constants in MHz : 82432.659583 34553.918715 24347.847934 

 Dipole components along the rotational axes: 
x,y,z [a.u.] :     0.149813     0.000007     0.000000 
x,y,z [Debye]:     0.380795     0.000017     0.000000 

 

         *************************************************************
                                TRAJECTORY STEP  80
                  R  :  40.00000000
         *************************************************************
---------------------------------
CARTESIAN COORDINATES (ANGSTROEM)
---------------------------------
  O      0.000000    0.000000    0.000000
  O      1.250149    0.000000    0.000000
  O      0.292489    0.803572    0.000000

----------------------------
CARTESIAN COORDINATES (A.U.)
----------------------------
  NO LB      ZA    FRAG     MASS         X           Y           Z
   0 O     8.0000    0    15.999    0.000000    0.000000    0.000000
   1 O     8.0000    0    15.999    2.362439    0.000000    0.000000
   2 O     8.0000    0    15.999    0.552724    1.518531    0.000000

--------------------------------
INTERNAL COORDINATES (ANGSTROEM)
--------------------------------
 O      0   0   0     0.000000000000     0.00000000     0.00000000
 O      1   0   0     1.250148781330     0.00000000     0.00000000
 O      2   1   0     1.250136431439    40.00000000     0.00000000

---------------------------
INTERNAL COORDINATES (A.U.)
---------------------------
 O      0   0   0     0.000000000000     0.00000000     0.00000000
 O      1   0   0     2.362438823369     0.00000000     0.00000000
 O      2   1   0     2.362415485457    40.00000000     0.00000000

------------------------------------------------------------------------------
                   ___                                                        
                  /   \      - P O W E R E D   B Y -                         
                 /     \                                                     
                 |  |  |   _    _      __       _____    __    __             
                 |  |  |  | |  | |    /  \     |  _  \  |  |  /  |          
                  \  \/   | |  | |   /    \    | | | |  |  | /  /          
                 / \  \   | |__| |  /  /\  \   | |_| |  |  |/  /          
                |  |  |   |  __  | /  /__\  \  |    /   |      \           
                |  |  |   | |  | | |   __   |  |    \   |  |\   \          
                \     /   | |  | | |  |  |  |  | |\  \  |  | \   \       
                 \___/    |_|  |_| |__|  |__|  |_| \__\ |__|  \__/        
                                                                              
                      - O R C A' S   B I G   F R I E N D -                    
                                      &                                       
                       - I N T E G R A L  F E E D E R -                       
                                                                              
 v1 FN, 2020, v2 2021                                                         
------------------------------------------------------------------------------


Reading SHARK input file O3.SHARKINP.tmp ... ok
----------------------
SHARK INTEGRAL PACKAGE
----------------------

Number of atoms                             ...      3
Number of basis functions                   ...     42
Number of shells                            ...     18
Maximum angular momentum                    ...      2
Integral batch strategy                     ... SHARK/LIBINT Hybrid
RI-J (if used) integral strategy            ... SPLIT-RIJ (Revised 2003 algorithm where possible)
Printlevel                                  ...      1
Contraction scheme used                     ... SEGMENTED contraction
Coulomb Range Separation                    ... NOT USED
Exchange Range Separation                   ... NOT USED
Finite Nucleus Model                        ... NOT USED
Auxiliary Coulomb fitting basis             ... AVAILABLE
   # of basis functions in Aux-J            ...    147
   # of shells in Aux-J                     ...     45
   Maximum angular momentum in Aux-J        ...      4
Auxiliary J/K fitting basis                 ... NOT available
Auxiliary Correlation fitting basis         ... NOT available
Auxiliary 'external' fitting basis          ... NOT available
Integral threshold                          ...     1.000000e-10
Primitive cut-off                           ...     1.000000e-11
Primitive pair pre-selection threshold      ...     1.000000e-11

Calculating pre-screening integrals         ... done (  0.0 sec) Dimension = 18
Organizing shell pair data                  ... done (  0.0 sec)
Shell pair information
Total number of shell pairs                 ...       171
Shell pairs after pre-screening             ...       171
Total number of primitive shell pairs       ...       705
Primitive shell pairs kept                  ...       622
          la=0 lb=0:     45 shell pairs
          la=1 lb=0:     54 shell pairs
          la=1 lb=1:     21 shell pairs
          la=2 lb=0:     27 shell pairs
          la=2 lb=1:     18 shell pairs
          la=2 lb=2:      6 shell pairs

Calculating one electron integrals          ... done (  0.0 sec)
Calculating RI/J V-Matrix + Cholesky decomp.... done (  0.0 sec)
Calculating Nuclear repulsion               ... done (  0.0 sec) ENN=     93.785639225247 Eh

SHARK setup successfully completed in   0.1 seconds

Maximum memory used throughout the entire GTOINT-calculation: 8.9 MB

Diagonalization of the overlap matrix:
Smallest eigenvalue                        ... 1.935e-03
Time for diagonalization                   ...    0.000 sec
Threshold for overlap eigenvalues          ... 1.000e-08
Number of eigenvalues below threshold      ... 0
Time for construction of square roots      ...    0.000 sec
Total time needed                          ...    0.000 sec

-------------------
DFT GRID GENERATION
-------------------

General Integration Accuracy     IntAcc      ... 4.388
Radial Grid Type                 RadialGrid  ... OptM3 with GC (2021)
Angular Grid (max. ang.)         AngularGrid ... 4 (Lebedev-302)
Angular grid pruning method      GridPruning ... 4 (adaptive)
Weight generation scheme         WeightScheme... Becke
Basis function cutoff            BFCut       ... 1.0000e-10
Integration weight cutoff        WCut        ... 1.0000e-14
Angular grids for H and He will be reduced by one unit
Partially contracted basis set               ... off
Rotationally invariant grid construction     ... off

Total number of grid points                  ...    18366
Total number of batches                      ...      289
Average number of points per batch           ...       63
Average number of grid points per atom       ...     6122
Time for grid setup =    0.089 sec

--------------
SCF ITERATIONS
--------------
ITER       Energy         Delta-E        Max-DP      RMS-DP      [F,P]     Damp
               ***  Starting incremental Fock matrix formation  ***
  0   -224.4127130412   0.000000000000 0.00729931  0.00045390  0.0179972 0.7000
                      *** Initiating the SOSCF procedure ***
                      *** Re-Reading the Fockian *** 
                      *** Removing any level shift *** 
ITER      Energy       Delta-E        Grad      Rot      Max-DP    RMS-DP
  1   -224.41314084  -0.0004278037  0.002605  0.002605  0.023995  0.001366
               *** Restarting incremental Fock matrix formation ***
  2   -224.41412612  -0.0009852763  0.001826  0.003352  0.006028  0.000385
  3   -224.41409958   0.0000265378  0.003208  0.002406  0.003023  0.000229
  4   -224.41414008  -0.0000404942  0.000447  0.000448  0.001461  0.000097
  5   -224.41414002   0.0000000600  0.000488  0.000259  0.000880  0.000053
  6   -224.41414149  -0.0000014736  0.000034  0.000041  0.000111  0.000007
                 **** Energy Check signals convergence ****
              ***Rediagonalizing the Fockian in SOSCF/NRSCF***

               *****************************************************
               *                     SUCCESS                       *
               *           SCF CONVERGED AFTER   7 CYCLES          *
               *****************************************************

Total Energy       :         -224.41414150 Eh           -6106.61924 eV
  Last Energy change         ...   -6.1004e-09  Tolerance :   1.0000e-06
  Last MAX-Density change    ...    3.9580e-05  Tolerance :   1.0000e-05
             **** THE GBW FILE WAS UPDATED (O3.gbw) ****
             **** DENSITY O3.scfp WAS UPDATED ****
             **** ENERGY FILE WAS UPDATED (O3.en.tmp) ****
             **** THE GBW FILE WAS UPDATED (O3.gbw) ****
             **** DENSITY O3.scfp WAS UPDATED ****
Total SCF time: 0 days 0 hours 0 min 0 sec 

Maximum memory used throughout the entire SCF-calculation: 10.9 MB

-------------------------   --------------------
FINAL SINGLE POINT ENERGY      -224.414141497247
-------------------------   --------------------

Storing actual gbw-file in O3.080.gbw ... done

                            ***************************************
                            *     ORCA property calculations      *
                            ***************************************

                                    ---------------------
                                    Active property flags
                                    ---------------------
   (+) Dipole Moment


------------------------------------------------------------------------------
                       ORCA ELECTRIC PROPERTIES CALCULATION
------------------------------------------------------------------------------

Dipole Moment Calculation                       ... on
Quadrupole Moment Calculation                   ... off
Polarizability Calculation                      ... off
GBWName                                         ... O3.gbw
Electron density                                ... O3.scfp
The origin for moment calculation is the CENTER OF MASS  = ( 0.971721,  0.506177  0.000000)

-------------
DIPOLE MOMENT
-------------
                                X             Y             Z
Electronic contribution:     -0.15324       0.05578       0.00000
Nuclear contribution   :     -0.00000       0.00000       0.00000
                        -----------------------------------------
Total Dipole Moment    :     -0.15324       0.05578       0.00000
                        -----------------------------------------
Magnitude (a.u.)       :      0.16308
Magnitude (Debye)      :      0.41452



--------------------
Rotational spectrum 
--------------------
 
Rotational constants in cm-1:     2.881719     1.145261     0.819552 
Rotational constants in MHz : 86391.753152 34334.069207 24569.560792 

 Dipole components along the rotational axes: 
x,y,z [a.u.] :     0.163082     0.000009     0.000000 
x,y,z [Debye]:     0.414520     0.000022     0.000000 

 
                              **** TRAJECTORY DONE ***

                         SUMMARY OF THE CALCULATED SURFACE

------------------
TRAJECTORY RESULTS
------------------

Column   1: R

The Calculated Surface using the 'Actual Energy'
 118.32108267 -225.27374221
 117.32967656 -225.27359984
 116.33827045 -225.27329194
 115.34686434 -225.27281285
 114.35545823 -225.27215670
 113.36405212 -225.27131727
 112.37264601 -225.27028802
 111.38123990 -225.26906207
 110.38983379 -225.26763213
 109.39842768 -225.26599043
 108.40702157 -225.26412862
 107.41561546 -225.26203649
 106.42420935 -225.25970838
 105.43280324 -225.25713044
 104.44139713 -225.25429344
 103.44999102 -225.25118634
 102.45858491 -225.24779752
 101.46717880 -225.24411471
 100.47577269 -225.24012492
  99.48436658 -225.23581431
  98.49296048 -225.23116816
  97.50155437 -225.22617066
  96.51014826 -225.22080517
  95.51874215 -225.21505392
  94.52733604 -225.20889823
  93.53592993 -225.20231822
  92.54452382 -225.19529291
  91.55311771 -225.18780000
  90.56171160 -225.17981576
  89.57030549 -225.17131487
  88.57889938 -225.16227031
  87.58749327 -225.15265325
  86.59608716 -225.14243299
  85.60468105 -225.13157694
  84.61327494 -225.12005071
  83.62186883 -225.10781818
  82.63046272 -225.09484172
  81.63905661 -225.08108239
  80.64765050 -225.06650035
  79.65624439 -225.05105546
  78.66483828 -225.03470831
  77.67343217 -225.01742158
  76.68202606 -224.99916234
  75.69061995 -224.97990537
  74.69921384 -224.95963805
  73.70780773 -224.93836738
  72.71640162 -224.91612988
  71.72499551 -224.89300489
  70.73358940 -224.86913025
  69.74218329 -224.84471679
  68.75077718 -224.82005346
  67.75937107 -224.79549105
  66.76796496 -224.77139791
  65.77655885 -225.15605777
  64.78515274 -225.15417513
  63.79374663 -225.15166747
  62.80234052 -225.14846241
  61.81093441 -225.14447795
  60.81952830 -225.13962118
  59.82812219 -225.13378646
  58.83671609 -225.12685355
  57.84530998 -225.11868563
  56.85390387 -225.10912716
  55.86249776 -225.09800135
  54.87109165 -225.08510771
  53.87968554 -225.07021908
  52.88827943 -225.05307771
  51.89687332 -225.03338995
  50.90546721 -225.01082046
  49.91406110 -224.98498693
  48.92265499 -224.95545512
  47.93124888 -224.92173279
  46.93984277 -224.88326022
  45.94843666 -224.83939766
  44.95703055 -224.78941326
  43.96562444 -224.73247380
  42.97421833 -224.66763355
  41.98281222 -224.59381543
  40.99140611 -224.50978733
  40.00000000 -224.41414150

The Calculated Surface using the SCF energy
 118.32108267 -225.27374221
 117.32967656 -225.27359984
 116.33827045 -225.27329194
 115.34686434 -225.27281285
 114.35545823 -225.27215670
 113.36405212 -225.27131727
 112.37264601 -225.27028802
 111.38123990 -225.26906207
 110.38983379 -225.26763213
 109.39842768 -225.26599043
 108.40702157 -225.26412862
 107.41561546 -225.26203649
 106.42420935 -225.25970838
 105.43280324 -225.25713044
 104.44139713 -225.25429344
 103.44999102 -225.25118634
 102.45858491 -225.24779752
 101.46717880 -225.24411471
 100.47577269 -225.24012492
  99.48436658 -225.23581431
  98.49296048 -225.23116816
  97.50155437 -225.22617066
  96.51014826 -225.22080517
  95.51874215 -225.21505392
  94.52733604 -225.20889823
  93.53592993 -225.20231822
  92.54452382 -225.19529291
  91.55311771 -225.18780000
  90.56171160 -225.17981576
  89.57030549 -225.17131487
  88.57889938 -225.16227031
  87.58749327 -225.15265325
  86.59608716 -225.14243299
  85.60468105 -225.13157694
  84.61327494 -225.12005071
  83.62186883 -225.10781818
  82.63046272 -225.09484172
  81.63905661 -225.08108239
  80.64765050 -225.06650035
  79.65624439 -225.05105546
  78.66483828 -225.03470831
  77.67343217 -225.01742158
  76.68202606 -224.99916234
  75.69061995 -224.97990537
  74.69921384 -224.95963805
  73.70780773 -224.93836738
  72.71640162 -224.91612988
  71.72499551 -224.89300489
  70.73358940 -224.86913025
  69.74218329 -224.84471679
  68.75077718 -224.82005346
  67.75937107 -224.79549105
  66.76796496 -224.77139791
  65.77655885 -225.15605777
  64.78515274 -225.15417513
  63.79374663 -225.15166747
  62.80234052 -225.14846241
  61.81093441 -225.14447795
  60.81952830 -225.13962118
  59.82812219 -225.13378646
  58.83671609 -225.12685355
  57.84530998 -225.11868563
  56.85390387 -225.10912716
  55.86249776 -225.09800135
  54.87109165 -225.08510771
  53.87968554 -225.07021908
  52.88827943 -225.05307771
  51.89687332 -225.03338995
  50.90546721 -225.01082046
  49.91406110 -224.98498693
  48.92265499 -224.95545512
  47.93124888 -224.92173279
  46.93984277 -224.88326022
  45.94843666 -224.83939766
  44.95703055 -224.78941326
  43.96562444 -224.73247380
  42.97421833 -224.66763355
  41.98281222 -224.59381543
  40.99140611 -224.50978733
  40.00000000 -224.41414150


Timings for individual modules:

Sum of individual times         ...       67.993 sec (=   1.133 min)
GTO integral calculation        ...        8.120 sec (=   0.135 min)  11.9 %
SCF iterations                  ...       59.873 sec (=   0.998 min)  88.1 %
                             ****ORCA TERMINATED NORMALLY****
TOTAL RUN TIME: 0 days 0 hours 1 minutes 16 seconds 153 msec
