
                                 *****************
                                 * O   R   C   A *
                                 *****************

                                            #,                                       
                                            ###                                      
                                            ####                                     
                                            #####                                    
                                            ######                                   
                                           ########,                                 
                                     ,,################,,,,,                         
                               ,,#################################,,                 
                          ,,##########################################,,             
                       ,#########################################, ''#####,          
                    ,#############################################,,   '####,        
                  ,##################################################,,,,####,       
                ,###########''''           ''''###############################       
              ,#####''   ,,,,##########,,,,          '''####'''          '####       
            ,##' ,,,,###########################,,,                        '##       
           ' ,,###''''                  '''############,,,                           
         ,,##''                                '''############,,,,        ,,,,,,###''
      ,#''                                            '''#######################'''  
     '                                                          ''''####''''         
             ,#######,   #######,   ,#######,      ##                                
            ,#'     '#,  ##    ##  ,#'     '#,    #''#        ######   ,####,        
            ##       ##  ##   ,#'  ##            #'  '#       #        #'  '#        
            ##       ##  #######   ##           ,######,      #####,   #    #        
            '#,     ,#'  ##    ##  '#,     ,#' ,#      #,         ##   #,  ,#        
             '#######'   ##     ##  '#######'  #'      '#     #####' # '####'        



                  #######################################################
                  #                        -***-                        #
                  #          Department of theory and spectroscopy      #
                  #    Directorship and core code : Frank Neese         #
                  #        Max Planck Institute fuer Kohlenforschung    #
                  #                Kaiser Wilhelm Platz 1               #
                  #                 D-45470 Muelheim/Ruhr               #
                  #                      Germany                        #
                  #                                                     #
                  #                  All rights reserved                #
                  #                        -***-                        #
                  #######################################################


                         Program Version 5.0.4 -  RELEASE  -


 With contributions from (in alphabetic order):
   Daniel Aravena         : Magnetic Suceptibility
   Michael Atanasov       : Ab Initio Ligand Field Theory (pilot matlab implementation)
   Alexander A. Auer      : GIAO ZORA, VPT2 properties, NMR spectrum
   Ute Becker             : Parallelization
   Giovanni Bistoni       : ED, misc. LED, open-shell LED, HFLD
   Martin Brehm           : Molecular dynamics
   Dmytro Bykov           : SCF Hessian
   Vijay G. Chilkuri      : MRCI spin determinant printing, contributions to CSF-ICE
   Dipayan Datta          : RHF DLPNO-CCSD density
   Achintya Kumar Dutta   : EOM-CC, STEOM-CC
   Dmitry Ganyushin       : Spin-Orbit,Spin-Spin,Magnetic field MRCI
   Miquel Garcia          : C-PCM and meta-GGA Hessian, CC/C-PCM, Gaussian charge scheme
   Yang Guo               : DLPNO-NEVPT2, F12-NEVPT2, CIM, IAO-localization
   Andreas Hansen         : Spin unrestricted coupled pair/coupled cluster methods
   Benjamin Helmich-Paris : MC-RPA, TRAH-SCF, COSX integrals
   Lee Huntington         : MR-EOM, pCC
   Robert Izsak           : Overlap fitted RIJCOSX, COSX-SCS-MP3, EOM
   Marcus Kettner         : VPT2
   Christian Kollmar      : KDIIS, OOCD, Brueckner-CCSD(T), CCSD density, CASPT2, CASPT2-K
   Simone Kossmann        : Meta GGA functionals, TD-DFT gradient, OOMP2, MP2 Hessian
   Martin Krupicka        : Initial AUTO-CI
   Lucas Lang             : DCDCAS
   Marvin Lechner         : AUTO-CI (C++ implementation), FIC-MRCC
   Dagmar Lenk            : GEPOL surface, SMD
   Dimitrios Liakos       : Extrapolation schemes; Compound Job, initial MDCI parallelization
   Dimitrios Manganas     : Further ROCIS development; embedding schemes
   Dimitrios Pantazis     : SARC Basis sets
   Anastasios Papadopoulos: AUTO-CI, single reference methods and gradients
   Taras Petrenko         : DFT Hessian,TD-DFT gradient, ASA, ECA, R-Raman, ABS, FL, XAS/XES, NRVS
   Peter Pinski           : DLPNO-MP2, DLPNO-MP2 Gradient
   Christoph Reimann      : Effective Core Potentials
   Marius Retegan         : Local ZFS, SOC
   Christoph Riplinger    : Optimizer, TS searches, QM/MM, DLPNO-CCSD(T), (RO)-DLPNO pert. Triples
   Tobias Risthaus        : Range-separated hybrids, TD-DFT gradient, RPA, STAB
   Michael Roemelt        : Original ROCIS implementation
   Masaaki Saitow         : Open-shell DLPNO-CCSD energy and density
   Barbara Sandhoefer     : DKH picture change effects
   Avijit Sen             : IP-ROCIS
   Kantharuban Sivalingam : CASSCF convergence, NEVPT2, FIC-MRCI
   Bernardo de Souza      : ESD, SOC TD-DFT
   Georgi Stoychev        : AutoAux, RI-MP2 NMR, DLPNO-MP2 response
   Willem Van den Heuvel  : Paramagnetic NMR
   Boris Wezisla          : Elementary symmetry handling
   Frank Wennmohs         : Technical directorship


 We gratefully acknowledge several colleagues who have allowed us to
 interface, adapt or use parts of their codes:
   Stefan Grimme, W. Hujo, H. Kruse, P. Pracht,  : VdW corrections, initial TS optimization,
                  C. Bannwarth, S. Ehlert          DFT functionals, gCP, sTDA/sTD-DF
   Ed Valeev, F. Pavosevic, A. Kumar             : LibInt (2-el integral package), F12 methods
   Garnet Chan, S. Sharma, J. Yang, R. Olivares  : DMRG
   Ulf Ekstrom                                   : XCFun DFT Library
   Mihaly Kallay                                 : mrcc  (arbitrary order and MRCC methods)
   Jiri Pittner, Ondrej Demel                    : Mk-CCSD
   Frank Weinhold                                : gennbo (NPA and NBO analysis)
   Christopher J. Cramer and Donald G. Truhlar   : smd solvation model
   Lars Goerigk                                  : TD-DFT with DH, B97 family of functionals
   V. Asgeirsson, H. Jonsson                     : NEB implementation
   FAccTs GmbH                                   : IRC, NEB, NEB-TS, DLPNO-Multilevel, CI-OPT
                                                   MM, QMMM, 2- and 3-layer-ONIOM, Crystal-QMMM,
                                                   LR-CPCM, SF, NACMEs, symmetry and pop. for TD-DFT,
                                                   nearIR, NL-DFT gradient (VV10), updates on ESD,
                                                   ML-optimized integration grids
   S Lehtola, MJT Oliveira, MAL Marques          : LibXC Library
   Liviu Ungur et al                             : ANISO software


 Your calculation uses the libint2 library for the computation of 2-el integrals
 For citations please refer to: http://libint.valeyev.net

 Your ORCA version has been built with support for libXC version: 5.1.0
 For citations please refer to: https://tddft.org/programs/libxc/

 This ORCA versions uses:
   CBLAS   interface :  Fast vector & matrix operations
   LAPACKE interface :  Fast linear algebra routines
   SCALAPACK package :  Parallel linear algebra routines
   Shared memory     :  Shared parallel matrices
   BLAS/LAPACK       :  OpenBLAS 0.3.15  USE64BITINT DYNAMIC_ARCH NO_AFFINITY Zen SINGLE_THREADED
        Core in use  :  Zen
   Copyright (c) 2011-2014, The OpenBLAS Project


leaving
================================================================================

----- Orbital basis set information -----
================================================================================
                                        WARNINGS
                       Please study these warnings very carefully!
================================================================================


WARNING: Direct SCF is incompatible with Method<>HF and Method<>DFT
  ===> : conventional SCF is chosen

WARNING: The NDO methods need Guess=HUECKEL or Guess=HCORE or Guess=MOREAD
  ===> : Guess is set to Hueckel

WARNING: The NDO methods need %rel::SOCType==1
  ===> : %rel::SOCType is set to 1

WARNING: The NDO methods cannot have frozencore=1
  ===> : %method FrozenCore=0 end

WARNING: The NDO methods cannot be used with Shark
  ===> : Turning Shark off

WARNING: Geometry Optimization
  ===> : Switching off AutoStart
         For restart on a previous wavefunction, please use MOREAD
================================================================================
                                       INPUT FILE
================================================================================
NAME = FCl_TS_OPT.inp
|  1> !PM3 OptTS NumFreq
|  2> 
|  3> 
|  4> *int -1 1
|  5> 	C      0   0   0     0.000000000000     0.00000000     0.00000000
|  6> 	Cl     1   0   0     2.079585242487     0.00000000     0.00000000
|  7> 	H      1   2   0     1.081721867911    96.03923931     0.00000000
|  8> 	H      1   2   3     1.081741782719    96.03225715   239.99909738
|  9> 	H      1   2   3     1.081734493373    96.03564226   120.00574515
| 10> 	F      1   2   3     2.100000027633   179.98926144    28.59469063
| 11> **                         ****END OF INPUT****
================================================================================

                       *****************************
                       * Geometry Optimization Run *
                       *****************************

Geometry optimization settings:
Update method            Update   .... Bofill
Choice of coordinates    CoordSys .... Z-matrix Internals
Initial Hessian          InHess   .... Almoef's Model

Convergence Tolerances:
Energy Change            TolE     ....  5.0000e-06 Eh
Max. Gradient            TolMAXG  ....  3.0000e-04 Eh/bohr
RMS Gradient             TolRMSG  ....  1.0000e-04 Eh/bohr
Max. Displacement        TolMAXD  ....  4.0000e-03 bohr
RMS Displacement         TolRMSD  ....  2.0000e-03 bohr
Strict Convergence                ....  False
------------------------------------------------------------------------------
                        ORCA OPTIMIZATION COORDINATE SETUP
------------------------------------------------------------------------------

The optimization will be done in new redundant internal coordinates
Making redundant internal coordinates   ...  (new redundants) done
Following TS mode number                ...     0
Evaluating the initial hessian          ...  (Almloef) done
Evaluating the coordinates              ...  done
Calculating the B-matrix                .... done
Calculating the G-matrix                .... done
Diagonalizing the G-matrix              .... done
The first mode is                       ....    5
The number of degrees of freedom        ....   12

    -----------------------------------------------------------------
                    Redundant Internal Coordinates


    -----------------------------------------------------------------
         Definition                    Initial Value    Approx d2E/dq
    -----------------------------------------------------------------
      1. B(Cl  1,C   0)                  2.0796         0.111313   
      2. B(H   2,C   0)                  1.0817         0.371219   
      3. B(H   3,C   0)                  1.0817         0.371192   
      4. B(H   4,C   0)                  1.0817         0.371202   
      5. B(F   5,H   2)                  2.2586         0.004094   
      6. B(F   5,H   3)                  2.2591         0.004088   
      7. B(F   5,C   0)                  2.1000         0.038301   
      8. B(F   5,H   4)                  2.2589         0.004091   
      9. A(Cl  1,C   0,H   3)           96.0323         0.279537   
     10. A(H   2,C   0,H   3)          118.9096         0.293634   
     11. A(Cl  1,C   0,H   4)           96.0356         0.279538   
     12. A(H   2,C   0,H   4)          118.9137         0.293635   
     13. A(H   3,C   0,H   4)          118.9029         0.293632   
     14. A(H   2,C   0,F   5)           83.9513         0.228553   
     15. A(H   3,C   0,F   5)           83.9769         0.228551   
     16. A(H   4,C   0,F   5)           83.9646         0.228552   
     17. A(Cl  1,C   0,H   2)           96.0392         0.279540   
    -----------------------------------------------------------------

Number of atoms                         .... 6
Number of degrees of freedom            .... 17

         *************************************************************
         *                GEOMETRY OPTIMIZATION CYCLE   1            *
         *************************************************************
---------------------------------
CARTESIAN COORDINATES (ANGSTROEM)
---------------------------------
  C      0.000000    0.000000    0.000000
  Cl     2.079585    0.000000    0.000000
  H     -0.113807    1.075718    0.000000
  H     -0.113678   -0.537891    0.931620
  H     -0.113741   -0.537962   -0.931563
  F     -2.100000    0.000346   -0.000188

----------------------------
CARTESIAN COORDINATES (A.U.)
----------------------------
  NO LB      ZA    FRAG     MASS         X           Y           Z
   0 C     4.0000    0    12.011    0.000000    0.000000    0.000000
   1 Cl    7.0000    0    35.453    3.929847    0.000000    0.000000
   2 H     1.0000    0     1.008   -0.215065    2.032813    0.000000
   3 H     1.0000    0     1.008   -0.214821   -1.016466    1.760507
   4 H     1.0000    0     1.008   -0.214940   -1.016602   -1.760398
   5 F     7.0000    0    18.998   -3.968425    0.000653   -0.000356

--------------------------------
INTERNAL COORDINATES (ANGSTROEM)
--------------------------------
 C      0   0   0     0.000000000000     0.00000000     0.00000000
 Cl     1   0   0     2.079585242487     0.00000000     0.00000000
 H      1   2   0     1.081721867911    96.03923931     0.00000000
 H      1   2   3     1.081741782719    96.03225715   239.99909738
 H      1   2   3     1.081734493373    96.03564226   120.00574515
 F      1   2   3     2.100000027633   179.98926144    28.59469063

---------------------------
INTERNAL COORDINATES (A.U.)
---------------------------
 C      0   0   0     0.000000000000     0.00000000     0.00000000
 Cl     1   0   0     3.929846580445     0.00000000     0.00000000
 H      1   2   0     2.044158083426    96.03923931     0.00000000
 H      1   2   3     2.044195716959    96.03225715   239.99909738
 H      1   2   3     2.044181942091    96.03564226   120.00574515
 F      1   2   3     3.968424933453   179.98926144    28.59469063

----------------------------
SLATER BASIS SET DIM=  15
----------------------------
  0 C     2 shells
 l=0 nsto= 1
    2       1.565085000000        1.000000000000
 l=1 nsto= 1
    2       1.842345000000        1.000000000000
  1 Cl    2 shells
 l=0 nsto= 1
    3       2.246210000000        1.000000000000
 l=1 nsto= 1
    3       2.151010000000        1.000000000000
  2 H     1 shells
 l=0 nsto= 1
    1       0.967807000000        1.000000000000
  3 H     1 shells
 l=0 nsto= 1
    1       0.967807000000        1.000000000000
  4 H     1 shells
 l=0 nsto= 1
    1       0.967807000000        1.000000000000
  5 F     2 shells
 l=0 nsto= 1
    2       4.708555000000        1.000000000000
 l=1 nsto= 1
    2       2.491178000000        1.000000000000
------------------------------------------------------------------------------
                           ORCA NDO INTEGRAL CALCULATION
------------------------------------------------------------------------------

--------------
NDO PARAMETERS
--------------

Gamma integral treatment              ... MOPAC
Nuclear repulsuion treatment          ... AM1-style
Interaction factors:
s-s (sigma) =    1.0000
s-p (sigma) =    1.0000
s-d (sigma) =    1.0000
p-p (sigma) =    1.0000  p-p(pi) =    1.0000
p-d (sigma) =    1.0000  p-d(pi) =    1.0000
d-d (sigma) =    1.0000  d-d(pi) =    1.0000 d-d (delta) =    1.0000

--------------------------
Parameters for Element H :
--------------------------
 One-electron parameters (in eV)
  U(s)  =   -13.073321 Beta(s) =     5.626512 Neff(s) =     1.000000
 One-center electron repulsion parameters (in eV)
  G(s,s)=    14.794208
--------------------------
Parameters for Element C :
--------------------------
 One-electron parameters (in eV)
  U(s)  =   -47.270320 Beta(s) =    11.910015 Neff(s) =     2.000000
  U(p)  =   -36.266918 Beta(p) =     9.802755 Neff(p) =     2.000000 
 One-center electron repulsion parameters (in eV)
  G(s,s)=    11.200708
  G(s,p)=    10.265027 G(p,p)  =     9.627141
 Slater-Condon parameters (in eV)
 F2(p,p)=     7.3072 G1(s,p)=    6.8729
--------------------------
Parameters for Element F :
--------------------------
 One-electron parameters (in eV)
  U(s)  =  -110.435303 Beta(s) =    48.405939 Neff(s) =     2.000000
  U(p)  =  -105.685047 Beta(p) =    27.744660 Neff(p) =     5.000000 
 One-center electron repulsion parameters (in eV)
  G(s,s)=    10.496667
  G(s,p)=    16.073689 G(p,p)  =    14.551347
 Slater-Condon parameters (in eV)
 F2(p,p)=     1.6619 G1(s,p)=    2.1833
--------------------------
Parameters for Element Cl:
--------------------------
 One-electron parameters (in eV)
  U(s)  =  -100.626747 Beta(s) =    27.528560 Neff(s) =     2.000000
  U(p)  =   -53.614396 Beta(p) =    11.593922 Neff(p) =     5.000000 
 One-center electron repulsion parameters (in eV)
  G(s,s)=    16.013601
  G(s,p)=     8.048115 G(p,p)  =     7.510174
 Slater-Condon parameters (in eV)
 F2(p,p)=     0.0753 G1(s,p)=   10.4435

 Number of atoms                    ....    6
 Number of basis functions          ....   15

 Overlap integrals                  .... done
 One electron matrix                .... done
 Nuclear repulsion                  .... done
 Integral list                      .... done
 Electron-electron repulsion        .... done
-------------------------------------------------------------------------------
                                 ORCA SCF
-------------------------------------------------------------------------------

------------
SCF SETTINGS
------------
Hamiltonian:
 ZDO-Hamiltonian        Method          .... NDDO


General Settings:
 Integral files         IntName         .... FCl_TS_OPT
 Hartree-Fock type      HFTyp           .... RHF
 Total Charge           Charge          ....   -1
 Multiplicity           Mult            ....    1
 Number of Electrons    NEL             ....   22
 Basis Dimension        Dim             ....   15
 Nuclear Repulsion      ENuc            ....     32.1958376079 Eh

Convergence Acceleration:
 DIIS                   CNVDIIS         .... on
   Start iteration      DIISMaxIt       ....    12
   Startup error        DIISStart       ....  0.200000
   # of expansion vecs  DIISMaxEq       ....     5
   Bias factor          DIISBfac        ....   1.050
   Max. coefficient     DIISMaxC        ....  10.000
 Trust-Rad. Augm. Hess. CNVTRAH         .... off
 SOSCF                  CNVSOSCF        .... on
   Start iteration      SOSCFMaxIt      ....   150
   Startup grad/error   SOSCFStart      ....  0.003300
 Level Shifting         CNVShift        .... on
   Level shift para.    LevelShift      ....    0.2500
   Turn off err/grad.   ShiftErr        ....    0.0010
 Zerner damping         CNVZerner       .... off
 Static damping         CNVDamp         .... on
   Fraction old density DampFac         ....    0.7000
   Max. Damping (<1)    DampMax         ....    0.9800
   Min. Damping (>=0)   DampMin         ....    0.0000
   Turn off err/grad.   DampErr         ....    0.1000
 Fernandez-Rico         CNVRico         .... off

SCF Procedure:
 Maximum # iterations   MaxIter         ....   125
 SCF integral mode      SCFMode         .... Conventional
 Integral Buffer length BufferLength    .... 1048576
 Integral index format  IndFormat       ....     0
 Integral value format  ValFormat       ....     0
 Integral Storage       Thresh          ....  2.500e-11 Eh

Convergence Tolerance:
 Convergence Check Mode ConvCheckMode   .... Total+1el-Energy
 Convergence forced     ConvForced      .... 0
 Energy Change          TolE            ....  1.000e-08 Eh
 1-El. energy change                    ....  1.000e-05 Eh
 Orbital Gradient       TolG            ....  1.000e-05
 Orbital Rotation angle TolX            ....  1.000e-05
 DIIS Error             TolErr          ....  5.000e-07


Diagonalization of the overlap matrix:
Smallest eigenvalue                        ... 2.028e-01
Time for diagonalization                   ...    0.013 sec
Threshold for overlap eigenvalues          ... 1.000e-08
Number of eigenvalues below threshold      ... 0
Time for construction of square roots      ...    0.014 sec
Total time needed                          ...    0.027 sec

-------------------------------
INITIAL GUESS: EXTENDED HUECKEL
-------------------------------
EHT matrix was read from disk
EHT matrix was diagonalized
Initial density was built
                      ------------------
                      INITIAL GUESS DONE
                      ------------------

 InCore treatment chosen:
   Memory dedicated               ...    1024 MB
   Memory needed                  ...      0 MB
   Number of tiny    integrals    ...      31
   Number of small   integrals    ...      18
   Number of regular integrals    ...     318

--------------
SCF ITERATIONS
--------------
ITER       Energy         Delta-E        Max-DP      RMS-DP      [F,P]     Damp
  0    -33.8034163648   0.000000000000 0.04679094  0.00465117  0.3469687 0.7000
  1    -33.8184142644  -0.014997899593 0.03961331  0.00459091  0.2615542 0.7000
                               ***Turning on DIIS***
  2    -33.8303740680  -0.011959803596 0.03447118  0.00395028  0.1903172 0.7000
  3    -33.8425333701  -0.012159302116 0.03417527  0.00365002  0.1376862 0.7000
  4    -33.8527480088  -0.010214638631 0.10425158  0.01072720  0.0978234 0.0000
  5    -33.8658449949  -0.013096986131 0.01955773  0.00200205  0.0125778 0.0000
  6    -33.8729201710  -0.007075176128 0.01652813  0.00178228  0.0078523 0.0000
  7    -33.8701833302   0.002736840790 0.00867521  0.00094172  0.0037721 0.0000
                      *** Initiating the SOSCF procedure ***
                           *** Shutting down DIIS ***
                      *** Re-Reading the Fockian *** 
                      *** Removing any level shift *** 
ITER      Energy       Delta-E        Grad      Rot      Max-DP    RMS-DP
  8    -33.86761403   0.0025692978  0.001460  0.001460  0.003909  0.000408
  9    -33.86552568   0.0020883535  0.000527  0.001568  0.002294  0.000234
 10    -33.86552843  -0.0000027462  0.000207  0.001168  0.001727  0.000192
 11    -33.86552919  -0.0000007666  0.000027  0.000059  0.000101  0.000019
 12    -33.86552921  -0.0000000196  0.000010  0.000032  0.000056  0.000010
                 **** Energy Check signals convergence ****
              ***Rediagonalizing the Fockian in SOSCF/NRSCF***

               *****************************************************
               *                     SUCCESS                       *
               *           SCF CONVERGED AFTER  13 CYCLES          *
               *****************************************************


----------------
TOTAL SCF ENERGY
----------------

Total Energy       :          -33.86552921 Eh            -921.52790 eV

Components:
Nuclear Repulsion  :           32.19583761 Eh             876.09328 eV
Electronic Energy  :          -66.06136682 Eh           -1797.62118 eV
One Electron Energy:         -121.92723768 Eh           -3317.80881 eV
Two Electron Energy:           55.86587085 Eh            1520.18763 eV


---------------
SCF CONVERGENCE
---------------

  Last Energy change         ...   -3.2418e-09  Tolerance :   1.0000e-08
  Last MAX-Density change    ...    6.4465e-06  Tolerance :   1.0000e-07
  Last RMS-Density change    ...    1.2571e-06  Tolerance :   5.0000e-09
  Last Orbital Gradient      ...    1.6816e-06  Tolerance :   1.0000e-05
  Last Orbital Rotation      ...    3.8050e-06  Tolerance :   1.0000e-05

             **** THE GBW FILE WAS UPDATED (FCl_TS_OPT.gbw) ****
             **** DENSITY FCl_TS_OPT.scfp WAS UPDATED ****
             **** ENERGY FILE WAS UPDATED (FCl_TS_OPT.en.tmp) ****
             **** THE GBW FILE WAS UPDATED (FCl_TS_OPT.gbw) ****
             **** DENSITY FCl_TS_OPT.scfp WAS UPDATED ****
----------------
ORBITAL ENERGIES
----------------

  NO   OCC          E(Eh)            E(eV) 
   0   2.0000      -1.843823       -50.1730 
   1   2.0000      -0.867997       -23.6194 
   2   2.0000      -0.380254       -10.3472 
   3   2.0000      -0.380240       -10.3468 
   4   2.0000      -0.339591        -9.2407 
   5   2.0000      -0.276646        -7.5279 
   6   2.0000      -0.228275        -6.2117 
   7   2.0000      -0.228274        -6.2117 
   8   2.0000      -0.196954        -5.3594 
   9   2.0000      -0.196952        -5.3593 
  10   2.0000      -0.158743        -4.3196 
  11   0.0000       0.177582         4.8322 
  12   0.0000       0.284775         7.7491 
  13   0.0000       0.323299         8.7974 
  14   0.0000       0.323316         8.7979 

                    ********************************
                    * MULLIKEN POPULATION ANALYSIS *
                    ********************************

-----------------------
MULLIKEN ATOMIC CHARGES
-----------------------
   0 C :    0.124749
   1 Cl:   -0.653931
   2 H :    0.117103
   3 H :    0.117026
   4 H :    0.117061
   5 F :   -0.822008
Sum of atomic charges:   -1.0000000

--------------------------------
MULLIKEN REDUCED ORBITAL CHARGES
--------------------------------
  0 C s       :     1.559894  s :     1.559894
      pz      :     0.906838  p :     2.315358
      px      :     0.501659
      py      :     0.906861
  1 Cls       :     2.004029  s :     2.004029
      pz      :     2.000191  p :     5.649902
      px      :     1.649520
      py      :     2.000191
  2 H s       :     0.882897  s :     0.882897
  3 H s       :     0.882974  s :     0.882974
  4 H s       :     0.882939  s :     0.882939
  5 F s       :     1.990048  s :     1.990048
      pz      :     1.999379  p :     5.831959
      px      :     1.833202
      py      :     1.999378


                     *******************************
                     * LOEWDIN POPULATION ANALYSIS *
                     *******************************

----------------------
LOEWDIN ATOMIC CHARGES
----------------------
   0 C :    0.329639
   1 Cl:   -0.639830
   2 H :    0.043686
   3 H :    0.043629
   4 H :    0.043654
   5 F :   -0.820777

-------------------------------
LOEWDIN REDUCED ORBITAL CHARGES
-------------------------------
  0 C s       :     1.194666  s :     1.194666
      pz      :     0.975616  p :     2.475695
      px      :     0.524445
      py      :     0.975634
  1 Cls       :     1.993608  s :     1.993608
      pz      :     1.999977  p :     5.646223
      px      :     1.646268
      py      :     1.999977
  2 H s       :     0.956314  s :     0.956314
  3 H s       :     0.956371  s :     0.956371
  4 H s       :     0.956346  s :     0.956346
  5 F s       :     1.989961  s :     1.989961
      pz      :     1.999408  p :     5.830816
      px      :     1.832002
      py      :     1.999406


                      *****************************
                      * MAYER POPULATION ANALYSIS *
                      *****************************

  NA   - Mulliken gross atomic population
  ZA   - Total nuclear charge
  QA   - Mulliken gross atomic charge
  VA   - Mayer's total valence
  BVA  - Mayer's bonded valence
  FA   - Mayer's free valence

  ATOM       NA         ZA         QA         VA         BVA        FA
  0 C      5.8833     4.0000    -1.8833     1.9957    10.1304    -8.1347
  1 Cl     7.7986     7.0000    -0.7986     0.3615     1.3321    -0.9706
  2 H      1.5810     1.0000    -0.5810     0.6624     3.1778    -2.5154
  3 H      1.5811     1.0000    -0.5811     0.6623     3.1779    -2.5155
  4 H      1.5811     1.0000    -0.5811     0.6624     3.1778    -2.5155
  5 F      7.8616     7.0000    -0.8616     0.2581     0.4368    -0.1787

  Mayer bond orders larger than 0.100000
B(  0-C ,  1-Cl) :   1.1424 B(  0-C ,  2-H ) :   2.8749 B(  0-C ,  3-H ) :   2.8749 
B(  0-C ,  4-H ) :   2.8749 B(  0-C ,  5-F ) :   0.3632 B(  2-H ,  3-H ) :   0.1163 
B(  2-H ,  4-H ) :   0.1163 B(  3-H ,  4-H ) :   0.1163 

-------
TIMINGS
-------

Total SCF time: 0 days 0 hours 0 min 0 sec 

Total time                  ....       0.409 sec
Sum of individual times     ....       0.036 sec  (  8.9%)

Fock matrix formation       ....       0.022 sec  (  5.4%)
Diagonalization             ....       0.001 sec  (  0.3%)
Density matrix formation    ....       0.000 sec  (  0.0%)
Population analysis         ....       0.001 sec  (  0.3%)
Initial guess               ....       0.010 sec  (  2.5%)
Orbital Transformation      ....       0.000 sec  (  0.0%)
Orbital Orthonormalization  ....       0.000 sec  (  0.0%)
DIIS solution               ....       0.001 sec  (  0.3%)
SOSCF solution              ....       0.001 sec  (  0.2%)

Maximum memory used throughout the entire SCF-calculation: 222.8 MB

-------------------------   --------------------
FINAL SINGLE POINT ENERGY       -33.865529214590
-------------------------   --------------------

------------------------------------------------------------------------------
                          SCF GRADIENT FOR NDO METHODS
------------------------------------------------------------------------------

The cartesian gradient:
   1   C   :    0.005109839    0.000029617   -0.000004929
   2   Cl  :   -0.000000978   -0.000001492    0.000000832
   3   H   :   -0.000005078   -0.000010305    0.000002107
   4   H   :    0.000005673   -0.000011116    0.000002881
   5   H   :    0.000000212   -0.000011009    0.000001518
   6   F   :   -0.005109669    0.000004305   -0.000002409

Norm of the cartesian gradient     ...    0.007226376
RMS gradient                       ...    0.001703273
MAX gradient                       ...    0.005109839
------------------------------------------------------------------------------
                         ORCA GEOMETRY RELAXATION STEP
------------------------------------------------------------------------------

Reading the OPT-File                    .... done
Getting information on internals        .... done
Copying old internal coords+grads       .... done
Making the new internal coordinates     .... (new redundants).... done
Validating the new internal coordinates .... (new redundants).... done
Calculating the B-matrix                .... done
Calculating the G,G- and P matrices     .... done
Transforming gradient to internals      .... done
Projecting the internal gradient        .... done
Number of atoms                         ....   6
Number of internal coordinates          ....  17
Current Energy                          ....   -33.865529215 Eh
Current gradient norm                   ....     0.007226376 Eh/bohr
Maximum allowed component of the step   ....  0.300
Current trust radius                    ....  0.300
Evaluating the initial hessian          ....  (Almloef) done
Projecting the Hessian                  .... done
Diagonalizing the Hessian               .... done
Dimension of the hessian                ....  17
Lowest eigenvalues of the Hessian:
  0.013869133  0.052341127  0.052342641  0.111312838  0.178483071
Hessian has   0 negative eigenvalues
Taking P-RFO step
Searching for lambda that maximizes along the lowest mode
TS mode is mode number   0 with eigenvalue   0.01386913 and components:
   1.   -0.00000000
   2.   -0.00513137
   3.   -0.00514089
   4.   -0.00513639
   5.   -0.49242961
   6.   -0.49251550
   7.   -0.51994867
   8.   -0.49247505
   9.    0.01762678
  10.   -0.00631694
  11.    0.01762756
  12.   -0.00631875
  13.   -0.00631498
  14.   -0.01760962
  15.   -0.01764499
  16.   -0.01762850
  17.    0.01762877

Lambda that maximizes along the TS mode:       0.01436066
Searching for lambda that minimizes along all other modes
In cycle   1: lambdaN =  -0.00004037   step =   0.00004037
In cycle   2: lambdaN =  -0.00004037   step =   0.00000000
Lambda that minimizes along all other modes:  -0.00004037
Calculated stepsize too large (   0.6530 >    0.3000). Scaled with    0.4595.
The final length of the internal step   ....       0.3000
Converting the step to cartesian space:
 Initial RMS(Int)=    0.0727606875
Transforming coordinates:
 Iter   0:  RMS(Cart)=    0.0349499586 RMS(Int)=    0.0715479165
 Iter   1:  RMS(Cart)=    0.0004850650 RMS(Int)=    0.0005426270
 Iter   2:  RMS(Cart)=    0.0000095735 RMS(Int)=    0.0000127105
 Iter   3:  RMS(Cart)=    0.0000003428 RMS(Int)=    0.0000004039
 Iter   4:  RMS(Cart)=    0.0000000118 RMS(Int)=    0.0000000132
done
Storing new coordinates                 .... done

                                .--------------------.
          ----------------------|Geometry convergence|-------------------------
          Item                value                   Tolerance       Converged
          ---------------------------------------------------------------------
          RMS gradient        0.0009180871            0.0001000000      NO
          MAX gradient        0.0028046397            0.0003000000      NO
          RMS step            0.0727606875            0.0020000000      NO
          MAX step            0.1378357643            0.0040000000      NO
          ........................................................
          Max(Bonds)      0.0729      Max(Angles)    2.63
          Max(Dihed)        0.00      Max(Improp)    0.00
          ---------------------------------------------------------------------

The optimization has not yet converged - more geometry cycles are needed


    ---------------------------------------------------------------------------
                         Redundant Internal Coordinates
                            (Angstroem and degrees)

        Definition                    Value    dE/dq     Step     New-Value  comp.(TS mode)
    ----------------------------------------------------------------------------
     1. B(Cl  1,C   0)                2.0796 -0.000001  0.0000    2.0796   
     2. B(H   2,C   0)                1.0817 -0.000341  0.0071    1.0888   
     3. B(H   3,C   0)                1.0817 -0.000327  0.0071    1.0888   
     4. B(H   4,C   0)                1.0817 -0.000329  0.0071    1.0888   
     5. B(F   5,H   2)                2.2586  0.000869  0.0729    2.3316          0.49
     6. B(F   5,H   3)                2.2591  0.000878  0.0729    2.3320          0.49
     7. B(F   5,C   0)                2.1000  0.002805  0.0729    2.1729          0.52
     8. B(F   5,H   4)                2.2589  0.000874  0.0729    2.3318          0.49
     9. A(Cl  1,C   0,H   3)           96.03  0.000771   -2.63     93.40   
    10. A(H   2,C   0,H   3)          118.91 -0.000274    0.94    119.85   
    11. A(Cl  1,C   0,H   4)           96.04  0.000775   -2.63     93.40   
    12. A(H   2,C   0,H   4)          118.91 -0.000269    0.94    119.86   
    13. A(H   3,C   0,H   4)          118.90 -0.000291    0.94    119.85   
    14. A(H   2,C   0,F   5)           83.95 -0.000776    2.63     86.58   
    15. A(H   3,C   0,F   5)           83.98 -0.000774    2.63     86.61   
    16. A(H   4,C   0,F   5)           83.96 -0.000776    2.63     86.60   
    17. A(Cl  1,C   0,H   2)           96.04  0.000781   -2.63     93.41   
    ----------------------------------------------------------------------------

         *************************************************************
         *                GEOMETRY OPTIMIZATION CYCLE   2            *
         *************************************************************
---------------------------------
CARTESIAN COORDINATES (ANGSTROEM)
---------------------------------
  C     -0.008964   -0.000012    0.000004
  Cl     2.070623    0.000005   -0.000003
  H     -0.087419    1.082972    0.000002
  H     -0.087292   -0.541522    0.937914
  H     -0.087354   -0.541593   -0.937850
  F     -2.161237    0.000362   -0.000198

----------------------------
CARTESIAN COORDINATES (A.U.)
----------------------------
  NO LB      ZA    FRAG     MASS         X           Y           Z
   0 C     4.0000    0    12.011   -0.016940   -0.000023    0.000008
   1 Cl    7.0000    0    35.453    3.912911    0.000009   -0.000006
   2 H     1.0000    0     1.008   -0.165198    2.046520    0.000003
   3 H     1.0000    0     1.008   -0.164957   -1.023329    1.772400
   4 H     1.0000    0     1.008   -0.165075   -1.023462   -1.772279
   5 F     7.0000    0    18.998   -4.084145    0.000684   -0.000373

--------------------------------
INTERNAL COORDINATES (ANGSTROEM)
--------------------------------
 C      0   0   0     0.000000000000     0.00000000     0.00000000
 Cl     1   0   0     2.079587376909     0.00000000     0.00000000
 H      1   2   0     1.085822017382    94.14298886     0.00000000
 H      1   2   3     1.085836933643    94.13708830   239.99949622
 H      1   2   3     1.085828978254    94.14003671   120.00483819
 F      1   2   3     2.152272590964   179.98816147    28.15944038

---------------------------
INTERNAL COORDINATES (A.U.)
---------------------------
 C      0   0   0     0.000000000000     0.00000000     0.00000000
 Cl     1   0   0     3.929850613918     0.00000000     0.00000000
 H      1   2   0     2.051906243034    94.14298886     0.00000000
 H      1   2   3     2.051934430682    94.13708830   239.99949622
 H      1   2   3     2.051919397175    94.14003671   120.00483819
 F      1   2   3     4.067205762467   179.98816147    28.15944038

------------------------------------------------------------------------------
                           ORCA NDO INTEGRAL CALCULATION
------------------------------------------------------------------------------

--------------
NDO PARAMETERS
--------------

Gamma integral treatment              ... MOPAC
Nuclear repulsuion treatment          ... AM1-style
Interaction factors:
s-s (sigma) =    1.0000
s-p (sigma) =    1.0000
s-d (sigma) =    1.0000
p-p (sigma) =    1.0000  p-p(pi) =    1.0000
p-d (sigma) =    1.0000  p-d(pi) =    1.0000
d-d (sigma) =    1.0000  d-d(pi) =    1.0000 d-d (delta) =    1.0000

--------------------------
Parameters for Element H :
--------------------------
 One-electron parameters (in eV)
  U(s)  =   -13.073321 Beta(s) =     5.626512 Neff(s) =     1.000000
 One-center electron repulsion parameters (in eV)
  G(s,s)=    14.794208
--------------------------
Parameters for Element C :
--------------------------
 One-electron parameters (in eV)
  U(s)  =   -47.270320 Beta(s) =    11.910015 Neff(s) =     2.000000
  U(p)  =   -36.266918 Beta(p) =     9.802755 Neff(p) =     2.000000 
 One-center electron repulsion parameters (in eV)
  G(s,s)=    11.200708
  G(s,p)=    10.265027 G(p,p)  =     9.627141
 Slater-Condon parameters (in eV)
 F2(p,p)=     7.3072 G1(s,p)=    6.8729
--------------------------
Parameters for Element F :
--------------------------
 One-electron parameters (in eV)
  U(s)  =  -110.435303 Beta(s) =    48.405939 Neff(s) =     2.000000
  U(p)  =  -105.685047 Beta(p) =    27.744660 Neff(p) =     5.000000 
 One-center electron repulsion parameters (in eV)
  G(s,s)=    10.496667
  G(s,p)=    16.073689 G(p,p)  =    14.551347
 Slater-Condon parameters (in eV)
 F2(p,p)=     1.6619 G1(s,p)=    2.1833
--------------------------
Parameters for Element Cl:
--------------------------
 One-electron parameters (in eV)
  U(s)  =  -100.626747 Beta(s) =    27.528560 Neff(s) =     2.000000
  U(p)  =   -53.614396 Beta(p) =    11.593922 Neff(p) =     5.000000 
 One-center electron repulsion parameters (in eV)
  G(s,s)=    16.013601
  G(s,p)=     8.048115 G(p,p)  =     7.510174
 Slater-Condon parameters (in eV)
 F2(p,p)=     0.0753 G1(s,p)=   10.4435

 Number of atoms                    ....    6
 Number of basis functions          ....   15

 Overlap integrals                  .... done
 One electron matrix                .... done
 Nuclear repulsion                  .... done
 Integral list                      .... done
 Electron-electron repulsion        .... done

Diagonalization of the overlap matrix:
Smallest eigenvalue                        ... 2.050e-01
Time for diagonalization                   ...    0.000 sec
Threshold for overlap eigenvalues          ... 1.000e-08
Number of eigenvalues below threshold      ... 0
Time for construction of square roots      ...    0.000 sec
Total time needed                          ...    0.001 sec


 InCore treatment chosen:
   Memory dedicated               ...    1024 MB
   Memory needed                  ...      0 MB
   Number of tiny    integrals    ...      31
   Number of small   integrals    ...      47
   Number of regular integrals    ...     343

--------------
SCF ITERATIONS
--------------
ITER       Energy         Delta-E        Max-DP      RMS-DP      [F,P]     Damp
  0    -33.8639909019   0.000000000000 0.00267807  0.00039404  0.0061016 0.7000
                      *** Initiating the SOSCF procedure ***
                      *** Re-Reading the Fockian *** 
                      *** Removing any level shift *** 
ITER      Energy       Delta-E        Grad      Rot      Max-DP    RMS-DP
  1    -33.86405219  -0.0000612834  0.001690  0.001690  0.010429  0.001458
  2    -33.86426414  -0.0002119585  0.001463  0.003827  0.005575  0.000732
  3    -33.86429901  -0.0000348658  0.000494  0.001434  0.002131  0.000314
  4    -33.86430277  -0.0000037618  0.000036  0.000087  0.000124  0.000020
  5    -33.86430280  -0.0000000283  0.000019  0.000093  0.000131  0.000017
  6    -33.86430281  -0.0000000068  0.000004  0.000007  0.000011  0.000001
                 **** Energy Check signals convergence ****
              ***Rediagonalizing the Fockian in SOSCF/NRSCF***

               *****************************************************
               *                     SUCCESS                       *
               *           SCF CONVERGED AFTER   7 CYCLES          *
               *****************************************************

Total Energy       :          -33.86430281 Eh            -921.49453 eV
  Last Energy change         ...   -1.1002e-10  Tolerance :   1.0000e-08
  Last MAX-Density change    ...    3.8723e-06  Tolerance :   1.0000e-07
             **** THE GBW FILE WAS UPDATED (FCl_TS_OPT.gbw) ****
             **** DENSITY FCl_TS_OPT.scfp WAS UPDATED ****
             **** ENERGY FILE WAS UPDATED (FCl_TS_OPT.en.tmp) ****
             **** THE GBW FILE WAS UPDATED (FCl_TS_OPT.gbw) ****
             **** DENSITY FCl_TS_OPT.scfp WAS UPDATED ****
Total SCF time: 0 days 0 hours 0 min 0 sec 

Maximum memory used throughout the entire SCF-calculation: 222.8 MB

-------------------------   --------------------
FINAL SINGLE POINT ENERGY       -33.864302806494
-------------------------   --------------------

------------------------------------------------------------------------------
                          SCF GRADIENT FOR NDO METHODS
------------------------------------------------------------------------------

The cartesian gradient:
   1   C   :   -0.002325793    0.000022982   -0.000004197
   2   Cl  :   -0.001272117   -0.000001193    0.000000727
   3   H   :    0.004414858    0.003366792    0.000001818
   4   H   :    0.004429069   -0.001697782    0.002926272
   5   H   :    0.004422146   -0.001697235   -0.002921116
   6   F   :   -0.009668163    0.000006436   -0.000003504

Norm of the cartesian gradient     ...    0.013905356
RMS gradient                       ...    0.003277524
MAX gradient                       ...    0.009668163
------------------------------------------------------------------------------
                         ORCA GEOMETRY RELAXATION STEP
------------------------------------------------------------------------------

Reading the OPT-File                    .... done
Getting information on internals        .... done
Copying old internal coords+grads       .... done
Making the new internal coordinates     .... (new redundants).... done
Validating the new internal coordinates .... (new redundants).... done
Calculating the B-matrix                .... done
Calculating the G,G- and P matrices     .... done
Transforming gradient to internals      .... done
Projecting the internal gradient        .... done
Number of atoms                         ....   6
Number of internal coordinates          ....  17
Current Energy                          ....   -33.864302806 Eh
Current gradient norm                   ....     0.013905356 Eh/bohr
Maximum allowed component of the step   ....  0.300
Current trust radius                    ....  0.300
Updating the Hessian (Bofill)          .... Diagonalizing the Hessian               .... done
Dimension of the hessian                ....  17
Lowest eigenvalues of the Hessian:
  0.013628269  0.052341128  0.052342642  0.111493529  0.166319053
Hessian has   0 negative eigenvalues
Taking P-RFO step
Searching for lambda that maximizes along the lowest mode
TS mode is mode number   0 with eigenvalue   0.01362827 and components:
   1.   -0.04373702
   2.   -0.00429925
   3.   -0.00428318
   4.   -0.00428833
   5.   -0.51198430
   6.   -0.51185040
   7.   -0.42312419
   8.   -0.51192102
   9.    0.07258269
  10.   -0.01990520
  11.    0.07260113
  12.   -0.01990620
  13.   -0.01995238
  14.   -0.07263270
  15.   -0.07256722
  16.   -0.07260268
  17.    0.07261879

Lambda that maximizes along the TS mode:       0.01598660
Searching for lambda that minimizes along all other modes
In cycle   1: lambdaN =  -0.00011623   step =   0.00011623
In cycle   2: lambdaN =  -0.00011623   step =   0.00000000
Lambda that minimizes along all other modes:  -0.00011623
Calculated stepsize too large (   0.7643 >    0.3000). Scaled with    0.3925.
The final length of the internal step   ....       0.3000
Converting the step to cartesian space:
 Initial RMS(Int)=    0.0727606875
Transforming coordinates:
 Iter   0:  RMS(Cart)=    0.0351647337 RMS(Int)=    0.0692546572
 Iter   1:  RMS(Cart)=    0.0010839967 RMS(Int)=    0.0011401911
 Iter   2:  RMS(Cart)=    0.0000276737 RMS(Int)=    0.0000399531
 Iter   3:  RMS(Cart)=    0.0000019938 RMS(Int)=    0.0000020933
 Iter   4:  RMS(Cart)=    0.0000000701 RMS(Int)=    0.0000000877
done
Storing new coordinates                 .... done

                                .--------------------.
          ----------------------|Geometry convergence|-------------------------
          Item                value                   Tolerance       Converged
          ---------------------------------------------------------------------
          Energy change       0.0012264081            0.0000050000      NO
          RMS gradient        0.0018702629            0.0001000000      NO
          MAX gradient        0.0035405154            0.0003000000      NO
          RMS step            0.0727606875            0.0020000000      NO
          MAX step            0.1177494115            0.0040000000      NO
          ........................................................
          Max(Bonds)      0.0623      Max(Angles)    4.11
          Max(Dihed)        0.00      Max(Improp)    0.00
          ---------------------------------------------------------------------

The optimization has not yet converged - more geometry cycles are needed


    ---------------------------------------------------------------------------
                         Redundant Internal Coordinates
                            (Angstroem and degrees)

        Definition                    Value    dE/dq     Step     New-Value  comp.(TS mode)
    ----------------------------------------------------------------------------
     1. B(Cl  1,C   0)                2.0796 -0.001272  0.0265    2.1061   
     2. B(H   2,C   0)                1.0858  0.001636  0.0013    1.0871   
     3. B(H   3,C   0)                1.0858  0.001646  0.0013    1.0871   
     4. B(H   4,C   0)                1.0858  0.001644  0.0013    1.0871   
     5. B(F   5,H   2)                2.3394  0.003529  0.0623    2.4017          0.51
     6. B(F   5,H   3)                2.3399  0.003541  0.0623    2.4022          0.51
     7. B(F   5,C   0)                2.1523  0.000268  0.0623    2.2146          0.42
     8. B(F   5,H   4)                2.3396  0.003535  0.0623    2.4019          0.51
     9. A(Cl  1,C   0,H   3)           94.14 -0.001408   -4.11     90.03   
    10. A(H   2,C   0,H   3)          119.48  0.000352    1.12    120.60   
    11. A(Cl  1,C   0,H   4)           94.14 -0.001405   -4.11     90.03   
    12. A(H   2,C   0,H   4)          119.49  0.000355    1.12    120.60   
    13. A(H   3,C   0,H   4)          119.48  0.000338    1.12    120.60   
    14. A(H   2,C   0,F   5)           85.85  0.001402    4.11     89.96   
    15. A(H   3,C   0,F   5)           85.87  0.001407    4.11     89.98   
    16. A(H   4,C   0,F   5)           85.86  0.001404    4.11     89.97   
    17. A(Cl  1,C   0,H   2)           94.14 -0.001401   -4.11     90.03   
    ----------------------------------------------------------------------------

         *************************************************************
         *                GEOMETRY OPTIMIZATION CYCLE   3            *
         *************************************************************
---------------------------------
CARTESIAN COORDINATES (ANGSTROEM)
---------------------------------
  C     -0.036196   -0.000030    0.000010
  Cl     2.069885    0.000007   -0.000008
  H     -0.059277    1.081873    0.000002
  H     -0.059178   -0.540967    0.936981
  H     -0.059225   -0.541036   -0.936913
  F     -2.217651    0.000364   -0.000202

----------------------------
CARTESIAN COORDINATES (A.U.)
----------------------------
  NO LB      ZA    FRAG     MASS         X           Y           Z
   0 C     4.0000    0    12.011   -0.068401   -0.000057    0.000018
   1 Cl    7.0000    0    35.453    3.911515    0.000013   -0.000015
   2 H     1.0000    0     1.008   -0.112017    2.044443    0.000005
   3 H     1.0000    0     1.008   -0.111830   -1.022279    1.770637
   4 H     1.0000    0     1.008   -0.111918   -1.022410   -1.770510
   5 F     7.0000    0    18.998   -4.190753    0.000687   -0.000382

--------------------------------
INTERNAL COORDINATES (ANGSTROEM)
--------------------------------
 C      0   0   0     0.000000000000     0.00000000     0.00000000
 Cl     1   0   0     2.106080978076     0.00000000     0.00000000
 H      1   2   0     1.082149028719    91.22110323     0.00000000
 H      1   2   3     1.082153243766    91.21777701   240.00073295
 H      1   2   3     1.082147139540    91.21943452   120.00293892
 F      1   2   3     2.181454630600   179.98714332    28.03726375

---------------------------
INTERNAL COORDINATES (A.U.)
---------------------------
 C      0   0   0     0.000000000000     0.00000000     0.00000000
 Cl     1   0   0     3.979916264424     0.00000000     0.00000000
 H      1   2   0     2.044965300368    91.22110323     0.00000000
 H      1   2   3     2.044973265652    91.21777701   240.00073295
 H      1   2   3     2.044961730338    91.21943452   120.00293892
 F      1   2   3     4.122351825409   179.98714332    28.03726375

------------------------------------------------------------------------------
                           ORCA NDO INTEGRAL CALCULATION
------------------------------------------------------------------------------

--------------
NDO PARAMETERS
--------------

Gamma integral treatment              ... MOPAC
Nuclear repulsuion treatment          ... AM1-style
Interaction factors:
s-s (sigma) =    1.0000
s-p (sigma) =    1.0000
s-d (sigma) =    1.0000
p-p (sigma) =    1.0000  p-p(pi) =    1.0000
p-d (sigma) =    1.0000  p-d(pi) =    1.0000
d-d (sigma) =    1.0000  d-d(pi) =    1.0000 d-d (delta) =    1.0000

--------------------------
Parameters for Element H :
--------------------------
 One-electron parameters (in eV)
  U(s)  =   -13.073321 Beta(s) =     5.626512 Neff(s) =     1.000000
 One-center electron repulsion parameters (in eV)
  G(s,s)=    14.794208
--------------------------
Parameters for Element C :
--------------------------
 One-electron parameters (in eV)
  U(s)  =   -47.270320 Beta(s) =    11.910015 Neff(s) =     2.000000
  U(p)  =   -36.266918 Beta(p) =     9.802755 Neff(p) =     2.000000 
 One-center electron repulsion parameters (in eV)
  G(s,s)=    11.200708
  G(s,p)=    10.265027 G(p,p)  =     9.627141
 Slater-Condon parameters (in eV)
 F2(p,p)=     7.3072 G1(s,p)=    6.8729
--------------------------
Parameters for Element F :
--------------------------
 One-electron parameters (in eV)
  U(s)  =  -110.435303 Beta(s) =    48.405939 Neff(s) =     2.000000
  U(p)  =  -105.685047 Beta(p) =    27.744660 Neff(p) =     5.000000 
 One-center electron repulsion parameters (in eV)
  G(s,s)=    10.496667
  G(s,p)=    16.073689 G(p,p)  =    14.551347
 Slater-Condon parameters (in eV)
 F2(p,p)=     1.6619 G1(s,p)=    2.1833
--------------------------
Parameters for Element Cl:
--------------------------
 One-electron parameters (in eV)
  U(s)  =  -100.626747 Beta(s) =    27.528560 Neff(s) =     2.000000
  U(p)  =   -53.614396 Beta(p) =    11.593922 Neff(p) =     5.000000 
 One-center electron repulsion parameters (in eV)
  G(s,s)=    16.013601
  G(s,p)=     8.048115 G(p,p)  =     7.510174
 Slater-Condon parameters (in eV)
 F2(p,p)=     0.0753 G1(s,p)=   10.4435

 Number of atoms                    ....    6
 Number of basis functions          ....   15

 Overlap integrals                  .... done
 One electron matrix                .... done
 Nuclear repulsion                  .... done
 Integral list                      .... done
 Electron-electron repulsion        .... done

Diagonalization of the overlap matrix:
Smallest eigenvalue                        ... 2.038e-01
Time for diagonalization                   ...    0.000 sec
Threshold for overlap eigenvalues          ... 1.000e-08
Number of eigenvalues below threshold      ... 0
Time for construction of square roots      ...    0.000 sec
Total time needed                          ...    0.001 sec


 InCore treatment chosen:
   Memory dedicated               ...    1024 MB
   Memory needed                  ...      0 MB
   Number of tiny    integrals    ...      34
   Number of small   integrals    ...      38
   Number of regular integrals    ...     352

--------------
SCF ITERATIONS
--------------
ITER       Energy         Delta-E        Max-DP      RMS-DP      [F,P]     Damp
  0    -33.8607509338   0.000000000000 0.00381789  0.00051922  0.0147061 0.7000
                      *** Initiating the SOSCF procedure ***
                      *** Re-Reading the Fockian *** 
                      *** Removing any level shift *** 
ITER      Energy       Delta-E        Grad      Rot      Max-DP    RMS-DP
  1    -33.86088583  -0.0001348967  0.002836  0.002836  0.013658  0.001867
  2    -33.86137744  -0.0004916076  0.003365  0.006188  0.007881  0.001187
  3    -33.86149853  -0.0001210963  0.001569  0.005585  0.007237  0.001156
  4    -33.86153549  -0.0000369526  0.000182  0.000613  0.000871  0.000099
  5    -33.86153593  -0.0000004395  0.000067  0.000302  0.000437  0.000051
  6    -33.86153599  -0.0000000686  0.000006  0.000013  0.000015  0.000003
                 **** Energy Check signals convergence ****
              ***Rediagonalizing the Fockian in SOSCF/NRSCF***

               *****************************************************
               *                     SUCCESS                       *
               *           SCF CONVERGED AFTER   7 CYCLES          *
               *****************************************************

Total Energy       :          -33.86153600 Eh            -921.41924 eV
  Last Energy change         ...   -5.6154e-10  Tolerance :   1.0000e-08
  Last MAX-Density change    ...    1.2415e-05  Tolerance :   1.0000e-07
             **** THE GBW FILE WAS UPDATED (FCl_TS_OPT.gbw) ****
             **** DENSITY FCl_TS_OPT.scfp WAS UPDATED ****
             **** ENERGY FILE WAS UPDATED (FCl_TS_OPT.en.tmp) ****
             **** THE GBW FILE WAS UPDATED (FCl_TS_OPT.gbw) ****
             **** DENSITY FCl_TS_OPT.scfp WAS UPDATED ****
Total SCF time: 0 days 0 hours 0 min 0 sec 

Maximum memory used throughout the entire SCF-calculation: 222.8 MB

-------------------------   --------------------
FINAL SINGLE POINT ENERGY       -33.861535995547
-------------------------   --------------------

------------------------------------------------------------------------------
                          SCF GRADIENT FOR NDO METHODS
------------------------------------------------------------------------------

The cartesian gradient:
   1   C   :   -0.006942168    0.000010519   -0.000001437
   2   Cl  :   -0.002992571   -0.000000108    0.000000166
   3   H   :    0.009150329    0.001306446    0.000001631
   4   H   :    0.009163824   -0.000662799    0.001138327
   5   H   :    0.009157537   -0.000662434   -0.001134213
   6   F   :   -0.017536952    0.000008375   -0.000004474

Norm of the cartesian gradient     ...    0.024928416
RMS gradient                       ...    0.005875684
MAX gradient                       ...    0.017536952
------------------------------------------------------------------------------
                         ORCA GEOMETRY RELAXATION STEP
------------------------------------------------------------------------------

Reading the OPT-File                    .... done
Getting information on internals        .... done
Copying old internal coords+grads       .... done
Making the new internal coordinates     .... (new redundants).... done
Validating the new internal coordinates .... (new redundants).... done
Calculating the B-matrix                .... done
Calculating the G,G- and P matrices     .... done
Transforming gradient to internals      .... done
Projecting the internal gradient        .... done
Number of atoms                         ....   6
Number of internal coordinates          ....  17
Current Energy                          ....   -33.861535996 Eh
Current gradient norm                   ....     0.024928416 Eh/bohr
Maximum allowed component of the step   ....  0.300
Current trust radius                    ....  0.300
Updating the Hessian (Bofill)          .... Diagonalizing the Hessian               .... done
Dimension of the hessian                ....  17
Lowest eigenvalues of the Hessian:
  0.020044112  0.052341128  0.052342642  0.109582378  0.150915818
Hessian has   0 negative eigenvalues
Taking P-RFO step
Searching for lambda that maximizes along the lowest mode
TS mode is mode number   0 with eigenvalue   0.02004411 and components:
   1.   -0.27698591
   2.   -0.00571208
   3.   -0.00568897
   4.   -0.00569439
   5.   -0.49104936
   6.   -0.49067457
   7.   -0.21777375
   8.   -0.49085912
   9.    0.15884253
  10.   -0.02196023
  11.    0.15889046
  12.   -0.02195325
  13.   -0.02214961
  14.   -0.15897159
  15.   -0.15879859
  16.   -0.15888610
  17.    0.15892331

Lambda that maximizes along the TS mode:       0.02563588
Searching for lambda that minimizes along all other modes
In cycle   1: lambdaN =  -0.00048754   step =   0.00048754
In cycle   2: lambdaN =  -0.00048754   step =   0.00000001
Lambda that minimizes along all other modes:  -0.00048754
Calculated stepsize too large (   0.9983 >    0.3000). Scaled with    0.3005.
The final length of the internal step   ....       0.3000
Converting the step to cartesian space:
 Initial RMS(Int)=    0.0727606875
Transforming coordinates:
 Iter   0:  RMS(Cart)=    0.0345287078 RMS(Int)=    0.0667274132
 Iter   1:  RMS(Cart)=    0.0016198678 RMS(Int)=    0.0016749404
 Iter   2:  RMS(Cart)=    0.0000479179 RMS(Int)=    0.0000703936
 Iter   3:  RMS(Cart)=    0.0000046372 RMS(Int)=    0.0000047111
 Iter   4:  RMS(Cart)=    0.0000001515 RMS(Int)=    0.0000002160
 Iter   5:  RMS(Cart)=    0.0000000130 RMS(Int)=    0.0000000132
done
Storing new coordinates                 .... done

                                .--------------------.
          ----------------------|Geometry convergence|-------------------------
          Item                value                   Tolerance       Converged
          ---------------------------------------------------------------------
          Energy change       0.0027668109            0.0000050000      NO
          RMS gradient        0.0035334782            0.0001000000      NO
          MAX gradient        0.0063383036            0.0003000000      NO
          RMS step            0.0727606875            0.0020000000      NO
          MAX step            0.0901530248            0.0040000000      NO
          ........................................................
          Max(Bonds)      0.0477      Max(Angles)    5.17
          Max(Dihed)        0.00      Max(Improp)    0.00
          ---------------------------------------------------------------------

The optimization has not yet converged - more geometry cycles are needed


    ---------------------------------------------------------------------------
                         Redundant Internal Coordinates
                            (Angstroem and degrees)

        Definition                    Value    dE/dq     Step     New-Value  comp.(TS mode)
    ----------------------------------------------------------------------------
     1. B(Cl  1,C   0)                2.1061 -0.002993  0.0477    2.1538          0.28
     2. B(H   2,C   0)                1.0821 -0.001602  0.0026    1.0847   
     3. B(H   3,C   0)                1.0822 -0.001598  0.0025    1.0847   
     4. B(H   4,C   0)                1.0821 -0.001598  0.0025    1.0847   
     5. B(F   5,H   2)                2.4142  0.006326  0.0477    2.4619          0.49
     6. B(F   5,H   3)                2.4146  0.006338  0.0477    2.4623          0.49
     7. B(F   5,C   0)                2.1815  0.000554  0.0477    2.2292   
     8. B(F   5,H   4)                2.4144  0.006333  0.0477    2.4621          0.49
     9. A(Cl  1,C   0,H   3)           91.22 -0.003532   -5.17     86.05   
    10. A(H   2,C   0,H   3)          119.95  0.000262    0.76    120.71   
    11. A(Cl  1,C   0,H   4)           91.22 -0.003531   -5.17     86.05   
    12. A(H   2,C   0,H   4)          119.96  0.000264    0.76    120.71   
    13. A(H   3,C   0,H   4)          119.95  0.000254    0.76    120.72   
    14. A(H   2,C   0,F   5)           88.77  0.003528    5.17     93.93   
    15. A(H   3,C   0,F   5)           88.79  0.003535    5.17     93.96   
    16. A(H   4,C   0,F   5)           88.78  0.003531    5.17     93.95   
    17. A(Cl  1,C   0,H   2)           91.22 -0.003531   -5.17     86.06   
    ----------------------------------------------------------------------------

         *************************************************************
         *                GEOMETRY OPTIMIZATION CYCLE   4            *
         *************************************************************
---------------------------------
CARTESIAN COORDINATES (ANGSTROEM)
---------------------------------
  C     -0.077306   -0.000052    0.000014
  Cl     2.076482   -0.000010   -0.000006
  H     -0.032337    1.076921    0.000001
  H     -0.032234   -0.538468    0.932721
  H     -0.032283   -0.538537   -0.932656
  F     -2.263965    0.000358   -0.000205

----------------------------
CARTESIAN COORDINATES (A.U.)
----------------------------
  NO LB      ZA    FRAG     MASS         X           Y           Z
   0 C     4.0000    0    12.011   -0.146087   -0.000098    0.000026
   1 Cl    7.0000    0    35.453    3.923982   -0.000019   -0.000011
   2 H     1.0000    0     1.008   -0.061108    2.035086    0.000002
   3 H     1.0000    0     1.008   -0.060913   -1.017558    1.762588
   4 H     1.0000    0     1.008   -0.061005   -1.017688   -1.762464
   5 F     7.0000    0    18.998   -4.278274    0.000676   -0.000388

--------------------------------
INTERNAL COORDINATES (ANGSTROEM)
--------------------------------
 C      0   0   0     0.000000000000     0.00000000     0.00000000
 Cl     1   0   0     2.153787904071     0.00000000     0.00000000
 H      1   2   0     1.077911391034    87.60788879     0.00000000
 H      1   2   3     1.077899450327    87.60448210   240.00315131
 H      1   2   3     1.077898645764    87.60619704   119.99979292
 F      1   2   3     2.186659027041   179.98660565    27.80066856

---------------------------
INTERNAL COORDINATES (A.U.)
---------------------------
 C      0   0   0     0.000000000000     0.00000000     0.00000000
 Cl     1   0   0     4.070069289247     0.00000000     0.00000000
 H      1   2   0     2.036957325689    87.60788879     0.00000000
 H      1   2   3     2.036934761023    87.60448210   240.00315131
 H      1   2   3     2.036933240619    87.60619704   119.99979292
 F      1   2   3     4.132186709375   179.98660565    27.80066856

------------------------------------------------------------------------------
                           ORCA NDO INTEGRAL CALCULATION
------------------------------------------------------------------------------

--------------
NDO PARAMETERS
--------------

Gamma integral treatment              ... MOPAC
Nuclear repulsuion treatment          ... AM1-style
Interaction factors:
s-s (sigma) =    1.0000
s-p (sigma) =    1.0000
s-d (sigma) =    1.0000
p-p (sigma) =    1.0000  p-p(pi) =    1.0000
p-d (sigma) =    1.0000  p-d(pi) =    1.0000
d-d (sigma) =    1.0000  d-d(pi) =    1.0000 d-d (delta) =    1.0000

--------------------------
Parameters for Element H :
--------------------------
 One-electron parameters (in eV)
  U(s)  =   -13.073321 Beta(s) =     5.626512 Neff(s) =     1.000000
 One-center electron repulsion parameters (in eV)
  G(s,s)=    14.794208
--------------------------
Parameters for Element C :
--------------------------
 One-electron parameters (in eV)
  U(s)  =   -47.270320 Beta(s) =    11.910015 Neff(s) =     2.000000
  U(p)  =   -36.266918 Beta(p) =     9.802755 Neff(p) =     2.000000 
 One-center electron repulsion parameters (in eV)
  G(s,s)=    11.200708
  G(s,p)=    10.265027 G(p,p)  =     9.627141
 Slater-Condon parameters (in eV)
 F2(p,p)=     7.3072 G1(s,p)=    6.8729
--------------------------
Parameters for Element F :
--------------------------
 One-electron parameters (in eV)
  U(s)  =  -110.435303 Beta(s) =    48.405939 Neff(s) =     2.000000
  U(p)  =  -105.685047 Beta(p) =    27.744660 Neff(p) =     5.000000 
 One-center electron repulsion parameters (in eV)
  G(s,s)=    10.496667
  G(s,p)=    16.073689 G(p,p)  =    14.551347
 Slater-Condon parameters (in eV)
 F2(p,p)=     1.6619 G1(s,p)=    2.1833
--------------------------
Parameters for Element Cl:
--------------------------
 One-electron parameters (in eV)
  U(s)  =  -100.626747 Beta(s) =    27.528560 Neff(s) =     2.000000
  U(p)  =   -53.614396 Beta(p) =    11.593922 Neff(p) =     5.000000 
 One-center electron repulsion parameters (in eV)
  G(s,s)=    16.013601
  G(s,p)=     8.048115 G(p,p)  =     7.510174
 Slater-Condon parameters (in eV)
 F2(p,p)=     0.0753 G1(s,p)=   10.4435

 Number of atoms                    ....    6
 Number of basis functions          ....   15

 Overlap integrals                  .... done
 One electron matrix                .... done
 Nuclear repulsion                  .... done
 Integral list                      .... done
 Electron-electron repulsion        .... done

Diagonalization of the overlap matrix:
Smallest eigenvalue                        ... 2.021e-01
Time for diagonalization                   ...    0.000 sec
Threshold for overlap eigenvalues          ... 1.000e-08
Number of eigenvalues below threshold      ... 0
Time for construction of square roots      ...    0.000 sec
Total time needed                          ...    0.001 sec


 InCore treatment chosen:
   Memory dedicated               ...    1024 MB
   Memory needed                  ...      0 MB
   Number of tiny    integrals    ...      37
   Number of small   integrals    ...      38
   Number of regular integrals    ...     352

--------------
SCF ITERATIONS
--------------
ITER       Energy         Delta-E        Max-DP      RMS-DP      [F,P]     Damp
  0    -33.8556474277   0.000000000000 0.00545606  0.00077024  0.0216967 0.7000
  1    -33.8559263131  -0.000278885379 0.00588658  0.00085442  0.0183800 0.7000
                               ***Turning on DIIS***
  2    -33.8561920872  -0.000265774189 0.01761939  0.00263086  0.0150842 0.0000
  3    -33.8621321829  -0.005940095656 0.00951038  0.00152289  0.0058518 0.0000
  4    -33.8615004478   0.000631735103 0.00585937  0.00094153  0.0028085 0.0000
                      *** Initiating the SOSCF procedure ***
                           *** Shutting down DIIS ***
                      *** Re-Reading the Fockian *** 
                      *** Removing any level shift *** 
ITER      Energy       Delta-E        Grad      Rot      Max-DP    RMS-DP
  5    -33.86087450   0.0006259515  0.001940  0.001940  0.003847  0.000570
  6    -33.85737649   0.0034980026  0.000621  0.001926  0.002472  0.000301
  7    -33.85738109  -0.0000045941  0.000271  0.001660  0.002088  0.000276
  8    -33.85738254  -0.0000014562  0.000036  0.000080  0.000075  0.000014
  9    -33.85738256  -0.0000000130  0.000011  0.000034  0.000047  0.000007
                 **** Energy Check signals convergence ****
              ***Rediagonalizing the Fockian in SOSCF/NRSCF***

               *****************************************************
               *                     SUCCESS                       *
               *           SCF CONVERGED AFTER  10 CYCLES          *
               *****************************************************

Total Energy       :          -33.85738256 Eh            -921.30622 eV
  Last Energy change         ...   -1.6087e-09  Tolerance :   1.0000e-08
  Last MAX-Density change    ...    1.2149e-06  Tolerance :   1.0000e-07
             **** THE GBW FILE WAS UPDATED (FCl_TS_OPT.gbw) ****
             **** DENSITY FCl_TS_OPT.scfp WAS UPDATED ****
             **** ENERGY FILE WAS UPDATED (FCl_TS_OPT.en.tmp) ****
             **** THE GBW FILE WAS UPDATED (FCl_TS_OPT.gbw) ****
             **** DENSITY FCl_TS_OPT.scfp WAS UPDATED ****
Total SCF time: 0 days 0 hours 0 min 0 sec 

Maximum memory used throughout the entire SCF-calculation: 222.8 MB

-------------------------   --------------------
FINAL SINGLE POINT ENERGY       -33.857382558760
-------------------------   --------------------

------------------------------------------------------------------------------
                          SCF GRADIENT FOR NDO METHODS
------------------------------------------------------------------------------

The cartesian gradient:
   1   C   :   -0.006411029   -0.000008403    0.000003574
   2   Cl  :   -0.004960166    0.000000224    0.000000168
   3   H   :    0.012938246   -0.001858744    0.000001429
   4   H   :    0.012952759    0.000928629   -0.001608903
   5   H   :    0.012945887    0.000927470    0.001609441
   6   F   :   -0.027465696    0.000010825   -0.000005709

Norm of the cartesian gradient     ...    0.036512926
RMS gradient                       ...    0.008606179
MAX gradient                       ...    0.027465696
------------------------------------------------------------------------------
                         ORCA GEOMETRY RELAXATION STEP
------------------------------------------------------------------------------

Reading the OPT-File                    .... done
Getting information on internals        .... done
Copying old internal coords+grads       .... done
Making the new internal coordinates     .... (new redundants).... done
Validating the new internal coordinates .... (new redundants).... done
Calculating the B-matrix                .... done
Calculating the G,G- and P matrices     .... done
Transforming gradient to internals      .... done
Projecting the internal gradient        .... done
Number of atoms                         ....   6
Number of internal coordinates          ....  17
Current Energy                          ....   -33.857382559 Eh
Current gradient norm                   ....     0.036512926 Eh/bohr
Maximum allowed component of the step   ....  0.300
Current trust radius                    ....  0.300
Updating the Hessian (Bofill)          .... Diagonalizing the Hessian               .... done
Dimension of the hessian                ....  17
Lowest eigenvalues of the Hessian:
  0.015723900  0.052341127  0.052342641  0.110689097  0.144326766
Hessian has   0 negative eigenvalues
Taking P-RFO step
Searching for lambda that maximizes along the lowest mode
TS mode is mode number   0 with eigenvalue   0.01572390 and components:
   1.    0.46201684
   2.    0.01160455
   3.    0.01158992
   4.    0.01158757
   5.    0.39692009
   6.    0.39673560
   7.   -0.02570707
   8.    0.39679768
   9.   -0.22840933
  10.   -0.00569772
  11.   -0.22840400
  12.   -0.00571978
  13.   -0.00531559
  14.    0.22842506
  15.    0.22837546
  16.    0.22838898
  17.   -0.22837623

Lambda that maximizes along the TS mode:       0.02495246
Searching for lambda that minimizes along all other modes
In cycle   1: lambdaN =  -0.00196105   step =   0.00196105
In cycle   2: lambdaN =  -0.00196157   step =   0.00000052
In cycle   3: lambdaN =  -0.00196157   step =   0.00000000
Lambda that minimizes along all other modes:  -0.00196157
Calculated stepsize too large (   0.9531 >    0.3000). Scaled with    0.3148.
The final length of the internal step   ....       0.3000
Converting the step to cartesian space:
 Initial RMS(Int)=    0.0727606875
Transforming coordinates:
 Iter   0:  RMS(Cart)=    0.0384552533 RMS(Int)=    0.0723649135
 Iter   1:  RMS(Cart)=    0.0027928628 RMS(Int)=    0.0028887268
 Iter   2:  RMS(Cart)=    0.0001084081 RMS(Int)=    0.0001574479
 Iter   3:  RMS(Cart)=    0.0000137766 RMS(Int)=    0.0000142073
 Iter   4:  RMS(Cart)=    0.0000005385 RMS(Int)=    0.0000007859
 Iter   5:  RMS(Cart)=    0.0000000683 RMS(Int)=    0.0000000703
done
Storing new coordinates                 .... done

                                .--------------------.
          ----------------------|Geometry convergence|-------------------------
          Item                value                   Tolerance       Converged
          ---------------------------------------------------------------------
          Energy change       0.0041534368            0.0000050000      NO
          RMS gradient        0.0055783542            0.0001000000      NO
          MAX gradient        0.0090827787            0.0003000000      NO
          RMS step            0.0727606875            0.0020000000      NO
          MAX step            0.0944284910            0.0040000000      NO
          ........................................................
          Max(Bonds)      0.0500      Max(Angles)    5.41
          Max(Dihed)        0.00      Max(Improp)    0.00
          ---------------------------------------------------------------------

The optimization has not yet converged - more geometry cycles are needed


    ---------------------------------------------------------------------------
                         Redundant Internal Coordinates
                            (Angstroem and degrees)

        Definition                    Value    dE/dq     Step     New-Value  comp.(TS mode)
    ----------------------------------------------------------------------------
     1. B(Cl  1,C   0)                2.1538 -0.004960  0.0500    2.2038          0.46
     2. B(H   2,C   0)                1.0779 -0.005595  0.0057    1.0836   
     3. B(H   3,C   0)                1.0779 -0.005602  0.0057    1.0836   
     4. B(H   4,C   0)                1.0779 -0.005598  0.0057    1.0836   
     5. B(F   5,H   2)                2.4777  0.009070  0.0500    2.5277          0.40
     6. B(F   5,H   3)                2.4782  0.009083  0.0500    2.5281          0.40
     7. B(F   5,C   0)                2.1867  0.002942 -0.0113    2.1754   
     8. B(F   5,H   4)                2.4780  0.009077  0.0500    2.5279          0.40
     9. A(Cl  1,C   0,H   3)           87.60 -0.005049   -5.41     82.19   
    10. A(H   2,C   0,H   3)          119.82 -0.000730   -0.17    119.65   
    11. A(Cl  1,C   0,H   4)           87.61 -0.005049   -5.41     82.20   
    12. A(H   2,C   0,H   4)          119.83 -0.000729   -0.17    119.66   
    13. A(H   3,C   0,H   4)          119.83 -0.000728   -0.16    119.67   
    14. A(H   2,C   0,F   5)           92.38  0.005044    5.41     97.79   
    15. A(H   3,C   0,F   5)           92.41  0.005055    5.41     97.82   
    16. A(H   4,C   0,F   5)           92.39  0.005050    5.41     97.80   
    17. A(Cl  1,C   0,H   2)           87.61 -0.005050   -5.41     82.20   
    ----------------------------------------------------------------------------

         *************************************************************
         *                GEOMETRY OPTIMIZATION CYCLE   5            *
         *************************************************************
---------------------------------
CARTESIAN COORDINATES (ANGSTROEM)
---------------------------------
  C     -0.135029   -0.000080    0.000017
  Cl     2.068728   -0.000033   -0.000003
  H     -0.000067    1.072465   -0.000002
  H      0.000037   -0.536209    0.928918
  H     -0.000012   -0.536273   -0.928853
  F     -2.295299    0.000341   -0.000207

----------------------------
CARTESIAN COORDINATES (A.U.)
----------------------------
  NO LB      ZA    FRAG     MASS         X           Y           Z
   0 C     4.0000    0    12.011   -0.255168   -0.000151    0.000031
   1 Cl    7.0000    0    35.453    3.909330   -0.000063   -0.000006
   2 H     1.0000    0     1.008   -0.000126    2.026666   -0.000005
   3 H     1.0000    0     1.008    0.000070   -1.013288    1.755400
   4 H     1.0000    0     1.008   -0.000023   -1.013410   -1.755277
   5 F     7.0000    0    18.998   -4.337486    0.000645   -0.000391

--------------------------------
INTERNAL COORDINATES (ANGSTROEM)
--------------------------------
 C      0   0   0     0.000000000000     0.00000000     0.00000000
 Cl     1   0   0     2.203757309333     0.00000000     0.00000000
 H      1   2   0     1.081003376843    82.82674692     0.00000000
 H      1   2   3     1.080987774747    82.82336284   240.00692412
 H      1   2   3     1.080985988531    82.82509645   119.99506088
 F      1   2   3     2.160269940688   179.98602530    27.47540466

---------------------------
INTERNAL COORDINATES (A.U.)
---------------------------
 C      0   0   0     0.000000000000     0.00000000     0.00000000
 Cl     1   0   0     4.164497780267     0.00000000     0.00000000
 H      1   2   0     2.042800332078    82.82674692     0.00000000
[...]
  2 H s       :     0.954940  s :     0.954940
  3 H s       :     0.954912  s :     0.954912
  4 H s       :     0.954919  s :     0.954919
  5 F s       :     1.991042  s :     1.991042
      pz      :     1.999144  p :     5.856021
      px      :     1.857732
      py      :     1.999145


                      *****************************
                      * MAYER POPULATION ANALYSIS *
                      *****************************

  NA   - Mulliken gross atomic population
  ZA   - Total nuclear charge
  QA   - Mulliken gross atomic charge
  VA   - Mayer's total valence
  BVA  - Mayer's bonded valence
  FA   - Mayer's free valence

  ATOM       NA         ZA         QA         VA         BVA        FA
  0 C      5.9163     4.0000    -1.9163     2.0012    10.1834    -8.1822
  1 Cl     7.7761     7.0000    -0.7761     0.3968     1.4436    -1.0468
  2 H      1.5794     1.0000    -0.5794     0.6643     3.1856    -2.5213
  3 H      1.5794     1.0000    -0.5794     0.6643     3.1856    -2.5212
  4 H      1.5794     1.0000    -0.5794     0.6643     3.1856    -2.5212
  5 F      7.8823     7.0000    -0.8823     0.2220     0.3829    -0.1608

  Mayer bond orders larger than 0.100000
B(  0-C ,  1-Cl) :   1.2584 B(  0-C ,  2-H ) :   2.8739 B(  0-C ,  3-H ) :   2.8739 
B(  0-C ,  4-H ) :   2.8739 B(  0-C ,  5-F ) :   0.3033 B(  2-H ,  3-H ) :   0.1201 
B(  2-H ,  4-H ) :   0.1201 B(  3-H ,  4-H ) :   0.1201 

-------
TIMINGS
-------

Total SCF time: 0 days 0 hours 0 min 0 sec 

Total time                  ....       0.140 sec
Sum of individual times     ....       0.013 sec  (  9.1%)

Fock matrix formation       ....       0.010 sec  (  6.8%)
Diagonalization             ....       0.000 sec  (  0.1%)
Density matrix formation    ....       0.000 sec  (  0.0%)
Population analysis         ....       0.002 sec  (  1.3%)
Initial guess               ....       0.001 sec  (  0.5%)
Orbital Transformation      ....       0.000 sec  (  0.0%)
Orbital Orthonormalization  ....       0.000 sec  (  0.0%)
DIIS solution               ....       0.000 sec  (  0.0%)
SOSCF solution              ....       0.001 sec  (  0.4%)

Maximum memory used throughout the entire SCF-calculation: 222.8 MB

-------------------------   --------------------
FINAL SINGLE POINT ENERGY       -33.865407694246
-------------------------   --------------------

                                *** OPTIMIZATION RUN DONE ***

                            ***************************************
                            *     ORCA property calculations      *
                            ***************************************

                                    ---------------------
                                    Active property flags
                                    ---------------------
   (+) Dipole Moment


------------------------------------------------------------------------------
                       ORCA ELECTRIC PROPERTIES CALCULATION
------------------------------------------------------------------------------

Dipole Moment Calculation                       ... on
Quadrupole Moment Calculation                   ... off
Polarizability Calculation                      ... off
GBWName                                         ... FCl_TS_OPT.gbw
Electron density                                ... FCl_TS_OPT.scfp
The origin for moment calculation is the CENTER OF MASS  = ( 0.910279, -0.000095  0.000020)

-------------
DIPOLE MOMENT
-------------
                                X             Y             Z
Electronic contribution:     25.76067      -0.00257       0.00115
Nuclear contribution   :    -19.98244       0.00171      -0.00080
                        -----------------------------------------
Total Dipole Moment    :      5.77823      -0.00086       0.00035
                        -----------------------------------------
Magnitude (a.u.)       :      5.77823
Magnitude (Debye)      :     14.68708



--------------------
Rotational spectrum 
--------------------
 
Rotational constants in cm-1:     4.845927     0.076113     0.076113 
Rotational constants in MHz : 145277.239255  2281.822551  2281.821621 

 Dipole components along the rotational axes: 
x,y,z [a.u.] :     5.778226     0.000163    -0.000500 
x,y,z [Debye]:    14.687083     0.000413    -0.001270 

 

----------------------------------------------------------------------------
                           ORCA NUMERICAL FREQUENCIES
----------------------------------------------------------------------------

Number of atoms                ... 6
Central differences            ... used
Number of displacements        ... 36
Numerical increment            ... 5.000e-03 bohr
IR-spectrum generation         ... on
Raman-spectrum generation      ... off
Surface Crossing Hessian       ... off

The output will be reduced. Please look at the following files:
SCF program output             ... >FCl_TS_OPT.lastscf
Integral program output        ... >FCl_TS_OPT.lastint
Gradient program output        ... >FCl_TS_OPT.lastgrad
Dipole moment program output   ... >FCl_TS_OPT.lastmom
AutoCI program output          ... >FCl_TS_OPT.lastautoci

	<< Calculating on displaced geometry   1 (of  36) >>
	<< Calculating on displaced geometry   2 (of  36) >>
	<< Calculating on displaced geometry   3 (of  36) >>
	<< Calculating on displaced geometry   4 (of  36) >>
	<< Calculating on displaced geometry   5 (of  36) >>
	<< Calculating on displaced geometry   6 (of  36) >>
	<< Calculating on displaced geometry   7 (of  36) >>
	<< Calculating on displaced geometry   8 (of  36) >>
	<< Calculating on displaced geometry   9 (of  36) >>
	<< Calculating on displaced geometry  10 (of  36) >>
	<< Calculating on displaced geometry  11 (of  36) >>
	<< Calculating on displaced geometry  12 (of  36) >>
	<< Calculating on displaced geometry  13 (of  36) >>
	<< Calculating on displaced geometry  14 (of  36) >>
	<< Calculating on displaced geometry  15 (of  36) >>
	<< Calculating on displaced geometry  16 (of  36) >>
	<< Calculating on displaced geometry  17 (of  36) >>
	<< Calculating on displaced geometry  18 (of  36) >>
	<< Calculating on displaced geometry  19 (of  36) >>
	<< Calculating on displaced geometry  20 (of  36) >>
	<< Calculating on displaced geometry  21 (of  36) >>
	<< Calculating on displaced geometry  22 (of  36) >>
	<< Calculating on displaced geometry  23 (of  36) >>
	<< Calculating on displaced geometry  24 (of  36) >>
	<< Calculating on displaced geometry  25 (of  36) >>
	<< Calculating on displaced geometry  26 (of  36) >>
	<< Calculating on displaced geometry  27 (of  36) >>
	<< Calculating on displaced geometry  28 (of  36) >>
	<< Calculating on displaced geometry  29 (of  36) >>
	<< Calculating on displaced geometry  30 (of  36) >>
	<< Calculating on displaced geometry  31 (of  36) >>
	<< Calculating on displaced geometry  32 (of  36) >>
	<< Calculating on displaced geometry  33 (of  36) >>
	<< Calculating on displaced geometry  34 (of  36) >>
	<< Calculating on displaced geometry  35 (of  36) >>
	<< Calculating on displaced geometry  36 (of  36) >>

-----------------------
VIBRATIONAL FREQUENCIES
-----------------------

Scaling factor for frequencies =  1.000000000 (already applied!)

   0:         0.00 cm**-1
   1:         0.00 cm**-1
   2:         0.00 cm**-1
   3:         0.00 cm**-1
   4:         0.00 cm**-1
   5:         0.00 cm**-1
   6:      -503.24 cm**-1 ***imaginary mode***
   7:       173.44 cm**-1
   8:       173.49 cm**-1
   9:       331.23 cm**-1
  10:       929.01 cm**-1
  11:       929.24 cm**-1
  12:      1074.80 cm**-1
  13:      1269.61 cm**-1
  14:      1270.06 cm**-1
  15:      3107.18 cm**-1
  16:      3187.04 cm**-1
  17:      3187.20 cm**-1


------------
NORMAL MODES
------------

These modes are the cartesian displacements weighted by the diagonal matrix
M(i,i)=1/sqrt(m[i]) where m[i] is the mass of the displaced atom
Thus, these vectors are normalized but *not* orthogonal

                  0          1          2          3          4          5    
      0       0.000000   0.000000   0.000000   0.000000   0.000000   0.000000
      1       0.000000   0.000000   0.000000   0.000000   0.000000   0.000000
      2       0.000000   0.000000   0.000000   0.000000   0.000000   0.000000
      3       0.000000   0.000000   0.000000   0.000000   0.000000   0.000000
      4       0.000000   0.000000   0.000000   0.000000   0.000000   0.000000
      5       0.000000   0.000000   0.000000   0.000000   0.000000   0.000000
      6       0.000000   0.000000   0.000000   0.000000   0.000000   0.000000
      7       0.000000   0.000000   0.000000   0.000000   0.000000   0.000000
      8       0.000000   0.000000   0.000000   0.000000   0.000000   0.000000
      9       0.000000   0.000000   0.000000   0.000000   0.000000   0.000000
     10       0.000000   0.000000   0.000000   0.000000   0.000000   0.000000
     11       0.000000   0.000000   0.000000   0.000000   0.000000   0.000000
     12       0.000000   0.000000   0.000000   0.000000   0.000000   0.000000
     13       0.000000   0.000000   0.000000   0.000000   0.000000   0.000000
     14       0.000000   0.000000   0.000000   0.000000   0.000000   0.000000
     15       0.000000   0.000000   0.000000   0.000000   0.000000   0.000000
     16       0.000000   0.000000   0.000000   0.000000   0.000000   0.000000
     17       0.000000   0.000000   0.000000   0.000000   0.000000   0.000000
                  6          7          8          9         10         11    
      0       0.875174  -0.000076   0.000327   0.351940  -0.000014  -0.000055
      1       0.000636   0.114174  -0.419937  -0.001146  -0.006990  -0.061689
      2       0.000010  -0.419722  -0.114197   0.000126   0.061757  -0.006991
      3      -0.087137  -0.000066   0.000155  -0.519253   0.000019   0.000062
      4      -0.000146  -0.024275   0.089283   0.000269   0.001860   0.016418
      5      -0.000001   0.089243   0.024281  -0.000042  -0.016435   0.001860
      6      -0.128181   0.054740  -0.201228  -0.090088   0.090671   0.801603
      7      -0.113792   0.121857  -0.448195  -0.034723   0.006837   0.060578
      8      -0.000038  -0.486091  -0.132197   0.000117  -0.089131   0.010145
      9      -0.129417  -0.202243   0.053402  -0.089901  -0.740573  -0.323246
     10       0.058660   0.112979  -0.481268   0.015765  -0.002857   0.083736
     11      -0.099353  -0.453310  -0.141023  -0.029070  -0.066600   0.019906
     12      -0.129315   0.147313   0.148470  -0.089856   0.649221  -0.480675
     13       0.058656   0.146238  -0.472100   0.015749   0.021513   0.080960
     14       0.099250  -0.462232  -0.108121   0.029270  -0.069253  -0.004552
     15      -0.370167   0.000182  -0.000531   0.760813   0.000010   0.000041
     16      -0.000316  -0.047103   0.173243   0.000392  -0.000405  -0.003590
     17       0.000002   0.173186   0.047119  -0.000018   0.003562  -0.000405
                 12         13         14         15         16         17    
      0       0.004503  -0.000003  -0.000043  -0.016146   0.000005  -0.000021
      1      -0.000006   0.000180  -0.093125  -0.000023  -0.000572  -0.098424
      2      -0.000013   0.093183   0.000181  -0.000001  -0.098423   0.000572
      3       0.032081   0.000001  -0.000002  -0.001387   0.000000   0.000001
      4      -0.000014  -0.000001   0.000375  -0.000001  -0.000001  -0.000228
      5       0.000005  -0.000385  -0.000001  -0.000000  -0.000226   0.000001
      6      -0.572597   0.000291  -0.138224   0.077753  -0.000687  -0.118921
      7      -0.079203   0.000154  -0.094252  -0.571811   0.004648   0.803751
      8       0.000031  -0.795529  -0.001522   0.000020  -0.017060   0.000069
      9      -0.570568   0.119540   0.069601   0.078036  -0.102874   0.060165
     10       0.039613  -0.386407   0.572285   0.286046  -0.354205   0.190144
     11      -0.068476  -0.128891   0.385109  -0.495427   0.596369  -0.358614
     12      -0.570923  -0.119844   0.069199   0.077981   0.103496   0.058933
     13       0.039581   0.384219   0.573735   0.286075   0.356412   0.186055
     14       0.068469  -0.127451  -0.385625   0.495422   0.600465   0.351690
     15       0.028232   0.000001   0.000001   0.000393   0.000000   0.000001
     16       0.000031  -0.000005   0.002371   0.000000   0.000000   0.000045
     17      -0.000002  -0.002384  -0.000005  -0.000000   0.000051  -0.000000


-----------
IR SPECTRUM
-----------

 Mode   freq       eps      Int      T**2         TX        TY        TZ
       cm**-1   L/(mol*cm) km/mol    a.u.
----------------------------------------------------------------------------
  7:    173.44   0.113506  573.61  0.204221  (-0.000002 -0.118660  0.436052)
  8:    173.49   0.113607  574.12  0.204345  (-0.000033  0.436215  0.118579)
  9:    331.23   0.000825    4.17  0.000777  ( 0.027876  0.000319 -0.000030)
 10:    929.01   0.002479   12.53  0.000833  ( 0.000144 -0.003258  0.028670)
 11:    929.24   0.002501   12.64  0.000840  ( 0.000513 -0.028793 -0.003250)
 12:   1074.80   0.384440  1942.80  0.111620  ( 0.334096 -0.000002  0.000002)
 13:   1269.61   0.051403  259.77  0.012634  ( 0.000005  0.000217  0.112403)
 14:   1270.06   0.051491  260.21  0.012652  (-0.000069 -0.112480  0.000218)
 15:   3107.18   0.146465  740.17  0.014710  ( 0.121284 -0.000121  0.000009)
 16:   3187.04   0.109647  554.11  0.010736  (-0.000005  0.000600  0.103614)
 17:   3187.20   0.109262  552.17  0.010698  ( 0.000112  0.103429 -0.000603)

* The epsilon (eps) is given for a Dirac delta lineshape.
** The dipole moment derivative (T) already includes vibrational overlap.

The first frequency considered to be a vibration is 7
The total number of vibrations considered is 11


--------------------------
THERMOCHEMISTRY AT 298.15K
--------------------------

Temperature         ... 298.15 K
Pressure            ... 1.00 atm
Total Mass          ... 69.49 AMU

Throughout the following assumptions are being made:
  (1) The electronic state is orbitally nondegenerate
  (2) There are no thermally accessible electronically excited states
  (3) Hindered rotations indicated by low frequency modes are not
      treated as such but are treated as vibrations and this may
      cause some error
  (4) All equations used are the standard statistical mechanics
      equations for an ideal gas
  (5) All vibrations are strictly harmonic

freq.     173.44  E(vib)   ...       0.38 
freq.     173.49  E(vib)   ...       0.38 
freq.     331.23  E(vib)   ...       0.24 
freq.     929.01  E(vib)   ...       0.03 
freq.     929.24  E(vib)   ...       0.03 
freq.    1074.80  E(vib)   ...       0.02 
freq.    1269.61  E(vib)   ...       0.01 
freq.    1270.06  E(vib)   ...       0.01 
freq.    3107.18  E(vib)   ...       0.00 
freq.    3187.04  E(vib)   ...       0.00 
freq.    3187.20  E(vib)   ...       0.00 

------------
INNER ENERGY
------------

The inner energy is: U= E(el) + E(ZPE) + E(vib) + E(rot) + E(trans)
    E(el)   - is the total energy from the electronic structure calculation
              = E(kin-el) + E(nuc-el) + E(el-el) + E(nuc-nuc)
    E(ZPE)  - the the zero temperature vibrational energy from the frequency calculation
    E(vib)  - the the finite temperature correction to E(ZPE) due to population
              of excited vibrational states
    E(rot)  - is the rotational thermal energy
    E(trans)- is the translational thermal energy

Summary of contributions to the inner energy U:
Electronic energy                ...    -33.86540769 Eh
Zero point energy                ...      0.03561304 Eh      22.35 kcal/mol
Thermal vibrational correction   ...      0.00173916 Eh       1.09 kcal/mol
Thermal rotational correction    ...      0.00141627 Eh       0.89 kcal/mol
Thermal translational correction ...      0.00141627 Eh       0.89 kcal/mol
-----------------------------------------------------------------------
Total thermal energy                    -33.82522296 Eh


Summary of corrections to the electronic energy:
(perhaps to be used in another calculation)
Total thermal correction                  0.00457170 Eh       2.87 kcal/mol
Non-thermal (ZPE) correction              0.03561304 Eh      22.35 kcal/mol
-----------------------------------------------------------------------
Total correction                          0.04018474 Eh      25.22 kcal/mol


--------
ENTHALPY
--------

The enthalpy is H = U + kB*T
                kB is Boltzmann's constant
Total free energy                 ...    -33.82522296 Eh 
Thermal Enthalpy correction       ...      0.00094421 Eh       0.59 kcal/mol
-----------------------------------------------------------------------
Total Enthalpy                    ...    -33.82427875 Eh


Note: Rotational entropy computed according to Herzberg 
Infrared and Raman Spectra, Chapter V,1, Van Nostrand Reinhold, 1945 
Point Group:  Cs, Symmetry Number:   1  
Rotational constants in cm-1:     4.845927     0.076113     0.076113 

Vibrational entropy computed according to the QRRHO of S. Grimme
Chem.Eur.J. 2012 18 9955


-------
ENTROPY
-------

The entropy contributions are T*S = T*(S(el)+S(vib)+S(rot)+S(trans))
     S(el)   - electronic entropy
     S(vib)  - vibrational entropy
     S(rot)  - rotational entropy
     S(trans)- translational entropy
The entropies will be listed as multiplied by the temperature to get
units of energy

Electronic entropy                ...      0.00000000 Eh      0.00 kcal/mol
Vibrational entropy               ...      0.00304786 Eh      1.91 kcal/mol
Rotational entropy                ...      0.01119755 Eh      7.03 kcal/mol
Translational entropy             ...      0.01835566 Eh     11.52 kcal/mol
-----------------------------------------------------------------------
Final entropy term                ...      0.03260107 Eh     20.46 kcal/mol

In case the symmetry of your molecule has not been determined correctly
or in case you have a reason to use a different symmetry number we print 
out the resulting rotational entropy values for sn=1,12 :
 --------------------------------------------------------
|  sn= 1 | S(rot)=       0.01119755 Eh      7.03 kcal/mol|
|  sn= 2 | S(rot)=       0.01054310 Eh      6.62 kcal/mol|
|  sn= 3 | S(rot)=       0.01016026 Eh      6.38 kcal/mol|
|  sn= 4 | S(rot)=       0.00988864 Eh      6.21 kcal/mol|
|  sn= 5 | S(rot)=       0.00967795 Eh      6.07 kcal/mol|
|  sn= 6 | S(rot)=       0.00950581 Eh      5.96 kcal/mol|
|  sn= 7 | S(rot)=       0.00936026 Eh      5.87 kcal/mol|
|  sn= 8 | S(rot)=       0.00923418 Eh      5.79 kcal/mol|
|  sn= 9 | S(rot)=       0.00912298 Eh      5.72 kcal/mol|
|  sn=10 | S(rot)=       0.00902350 Eh      5.66 kcal/mol|
|  sn=11 | S(rot)=       0.00893351 Eh      5.61 kcal/mol|
|  sn=12 | S(rot)=       0.00885135 Eh      5.55 kcal/mol|
 --------------------------------------------------------


-------------------
GIBBS FREE ENERGY
-------------------

The Gibbs free energy is G = H - T*S

Total enthalpy                    ...    -33.82427875 Eh 
Total entropy correction          ...     -0.03260107 Eh    -20.46 kcal/mol
-----------------------------------------------------------------------
Final Gibbs free energy         ...    -33.85687982 Eh

For completeness - the Gibbs free energy minus the electronic energy
G-E(el)                           ...      0.00852787 Eh      5.35 kcal/mol



Timings for individual modules:

Sum of individual times         ...       88.486 sec (=   1.475 min)
STO integral calculation        ...        0.536 sec (=   0.009 min)   0.6 %
SCF iterations                  ...        3.244 sec (=   0.054 min)   3.7 %
SCF Gradient evaluation         ...        0.272 sec (=   0.005 min)   0.3 %
Geometry relaxation             ...        0.783 sec (=   0.013 min)   0.9 %
Numerical frequency calculation ...       83.652 sec (=   1.394 min)  94.5 %
                             ****ORCA TERMINATED NORMALLY****
TOTAL RUN TIME: 0 days 0 hours 1 minutes 29 seconds 292 msec
