
                                 *****************
                                 * O   R   C   A *
                                 *****************

                                            #,                                       
                                            ###                                      
                                            ####                                     
                                            #####                                    
                                            ######                                   
                                           ########,                                 
                                     ,,################,,,,,                         
                               ,,#################################,,                 
                          ,,##########################################,,             
                       ,#########################################, ''#####,          
                    ,#############################################,,   '####,        
                  ,##################################################,,,,####,       
                ,###########''''           ''''###############################       
              ,#####''   ,,,,##########,,,,          '''####'''          '####       
            ,##' ,,,,###########################,,,                        '##       
           ' ,,###''''                  '''############,,,                           
         ,,##''                                '''############,,,,        ,,,,,,###''
      ,#''                                            '''#######################'''  
     '                                                          ''''####''''         
             ,#######,   #######,   ,#######,      ##                                
            ,#'     '#,  ##    ##  ,#'     '#,    #''#        ######   ,####,        
            ##       ##  ##   ,#'  ##            #'  '#       #        #'  '#        
            ##       ##  #######   ##           ,######,      #####,   #    #        
            '#,     ,#'  ##    ##  '#,     ,#' ,#      #,         ##   #,  ,#        
             '#######'   ##     ##  '#######'  #'      '#     #####' # '####'        



                  #######################################################
                  #                        -***-                        #
                  #          Department of theory and spectroscopy      #
                  #    Directorship and core code : Frank Neese         #
                  #        Max Planck Institute fuer Kohlenforschung    #
                  #                Kaiser Wilhelm Platz 1               #
                  #                 D-45470 Muelheim/Ruhr               #
                  #                      Germany                        #
                  #                                                     #
                  #                  All rights reserved                #
                  #                        -***-                        #
                  #######################################################


                         Program Version 5.0.4 -  RELEASE  -


 With contributions from (in alphabetic order):
   Daniel Aravena         : Magnetic Suceptibility
   Michael Atanasov       : Ab Initio Ligand Field Theory (pilot matlab implementation)
   Alexander A. Auer      : GIAO ZORA, VPT2 properties, NMR spectrum
   Ute Becker             : Parallelization
   Giovanni Bistoni       : ED, misc. LED, open-shell LED, HFLD
   Martin Brehm           : Molecular dynamics
   Dmytro Bykov           : SCF Hessian
   Vijay G. Chilkuri      : MRCI spin determinant printing, contributions to CSF-ICE
   Dipayan Datta          : RHF DLPNO-CCSD density
   Achintya Kumar Dutta   : EOM-CC, STEOM-CC
   Dmitry Ganyushin       : Spin-Orbit,Spin-Spin,Magnetic field MRCI
   Miquel Garcia          : C-PCM and meta-GGA Hessian, CC/C-PCM, Gaussian charge scheme
   Yang Guo               : DLPNO-NEVPT2, F12-NEVPT2, CIM, IAO-localization
   Andreas Hansen         : Spin unrestricted coupled pair/coupled cluster methods
   Benjamin Helmich-Paris : MC-RPA, TRAH-SCF, COSX integrals
   Lee Huntington         : MR-EOM, pCC
   Robert Izsak           : Overlap fitted RIJCOSX, COSX-SCS-MP3, EOM
   Marcus Kettner         : VPT2
   Christian Kollmar      : KDIIS, OOCD, Brueckner-CCSD(T), CCSD density, CASPT2, CASPT2-K
   Simone Kossmann        : Meta GGA functionals, TD-DFT gradient, OOMP2, MP2 Hessian
   Martin Krupicka        : Initial AUTO-CI
   Lucas Lang             : DCDCAS
   Marvin Lechner         : AUTO-CI (C++ implementation), FIC-MRCC
   Dagmar Lenk            : GEPOL surface, SMD
   Dimitrios Liakos       : Extrapolation schemes; Compound Job, initial MDCI parallelization
   Dimitrios Manganas     : Further ROCIS development; embedding schemes
   Dimitrios Pantazis     : SARC Basis sets
   Anastasios Papadopoulos: AUTO-CI, single reference methods and gradients
   Taras Petrenko         : DFT Hessian,TD-DFT gradient, ASA, ECA, R-Raman, ABS, FL, XAS/XES, NRVS
   Peter Pinski           : DLPNO-MP2, DLPNO-MP2 Gradient
   Christoph Reimann      : Effective Core Potentials
   Marius Retegan         : Local ZFS, SOC
   Christoph Riplinger    : Optimizer, TS searches, QM/MM, DLPNO-CCSD(T), (RO)-DLPNO pert. Triples
   Tobias Risthaus        : Range-separated hybrids, TD-DFT gradient, RPA, STAB
   Michael Roemelt        : Original ROCIS implementation
   Masaaki Saitow         : Open-shell DLPNO-CCSD energy and density
   Barbara Sandhoefer     : DKH picture change effects
   Avijit Sen             : IP-ROCIS
   Kantharuban Sivalingam : CASSCF convergence, NEVPT2, FIC-MRCI
   Bernardo de Souza      : ESD, SOC TD-DFT
   Georgi Stoychev        : AutoAux, RI-MP2 NMR, DLPNO-MP2 response
   Willem Van den Heuvel  : Paramagnetic NMR
   Boris Wezisla          : Elementary symmetry handling
   Frank Wennmohs         : Technical directorship


 We gratefully acknowledge several colleagues who have allowed us to
 interface, adapt or use parts of their codes:
   Stefan Grimme, W. Hujo, H. Kruse, P. Pracht,  : VdW corrections, initial TS optimization,
                  C. Bannwarth, S. Ehlert          DFT functionals, gCP, sTDA/sTD-DF
   Ed Valeev, F. Pavosevic, A. Kumar             : LibInt (2-el integral package), F12 methods
   Garnet Chan, S. Sharma, J. Yang, R. Olivares  : DMRG
   Ulf Ekstrom                                   : XCFun DFT Library
   Mihaly Kallay                                 : mrcc  (arbitrary order and MRCC methods)
   Jiri Pittner, Ondrej Demel                    : Mk-CCSD
   Frank Weinhold                                : gennbo (NPA and NBO analysis)
   Christopher J. Cramer and Donald G. Truhlar   : smd solvation model
   Lars Goerigk                                  : TD-DFT with DH, B97 family of functionals
   V. Asgeirsson, H. Jonsson                     : NEB implementation
   FAccTs GmbH                                   : IRC, NEB, NEB-TS, DLPNO-Multilevel, CI-OPT
                                                   MM, QMMM, 2- and 3-layer-ONIOM, Crystal-QMMM,
                                                   LR-CPCM, SF, NACMEs, symmetry and pop. for TD-DFT,
                                                   nearIR, NL-DFT gradient (VV10), updates on ESD,
                                                   ML-optimized integration grids
   S Lehtola, MJT Oliveira, MAL Marques          : LibXC Library
   Liviu Ungur et al                             : ANISO software


 Your calculation uses the libint2 library for the computation of 2-el integrals
 For citations please refer to: http://libint.valeyev.net

 Your ORCA version has been built with support for libXC version: 5.1.0
 For citations please refer to: https://tddft.org/programs/libxc/

 This ORCA versions uses:
   CBLAS   interface :  Fast vector & matrix operations
   LAPACKE interface :  Fast linear algebra routines
   SCALAPACK package :  Parallel linear algebra routines
   Shared memory     :  Shared parallel matrices
   BLAS/LAPACK       :  OpenBLAS 0.3.15  USE64BITINT DYNAMIC_ARCH NO_AFFINITY Zen SINGLE_THREADED
        Core in use  :  Zen
   Copyright (c) 2011-2014, The OpenBLAS Project


leaving
================================================================================

----- Orbital basis set information -----
================================================================================
                                        WARNINGS
                       Please study these warnings very carefully!
================================================================================

WARNING: Old DensityContainer found on disk!
         Will remove this file - 
         If you want to keep old densities, please start your calculation with a different basename. 


WARNING: Direct SCF is incompatible with Method<>HF and Method<>DFT
  ===> : conventional SCF is chosen

WARNING: The NDO methods need Guess=HUECKEL or Guess=HCORE or Guess=MOREAD
  ===> : Guess is set to Hueckel

WARNING: The NDO methods need %rel::SOCType==1
  ===> : %rel::SOCType is set to 1

WARNING: The NDO methods cannot have frozencore=1
  ===> : %method FrozenCore=0 end

WARNING: The NDO methods cannot be used with Shark
  ===> : Turning Shark off

WARNING: Geometry Optimization
  ===> : Switching off AutoStart
         For restart on a previous wavefunction, please use MOREAD
================================================================================
                                       INPUT FILE
================================================================================
NAME = Keto_enol_TS.inp
|  1> !PM3 Opt 
|  2> 
|  3> 
|  4> %geom scan
|  5> 	 B 7 9 = 2.544 , 0.7 , 30
|  6> end
|  7> end
|  8> 
|  9> *int 0 1
| 10>    C     0     0     0        0.00000        0.00000        0.00000
| 11>    C     1     0     0        1.52458        0.00000        0.00000
| 12>    H     1     2     0        1.11081      110.53781        0.00000
| 13>    H     1     2     3        1.10545      109.83648      238.86890
| 14>    H     1     2     3        1.11084      110.59188      117.70663
| 15>    C     2     1     3        1.52459      116.32806      301.02006
| 16>    H     6     2     1        1.11088      110.54692      300.76195
| 17>    H     6     2     1        1.10546      109.83506      179.67306
| 18>    H     6     2     1        1.11080      110.60741       58.47703
| 19>    O     2     1     3        1.22101      121.83952      121.02645
| 20> *
| 21> 
| 22>                          ****END OF INPUT****
================================================================================

                       ******************************
                       *    Relaxed Surface Scan    *
                       ******************************

                      Bond (  9,   7):   range=   2.54400000 ..   0.70000000  steps =   30

There is 1 parameter to be scanned.
There will be   30 constrained geometry optimizations.


         *************************************************************
         *               RELAXED SURFACE SCAN STEP   1               *
         *                                                           *
         *                 Bond (  9,   7)  :   2.54400000           *
         *************************************************************

Geometry optimization settings:
Update method            Update   .... BFGS
Choice of coordinates    CoordSys .... Z-matrix Internals
Initial Hessian          InHess   .... Almoef's Model

Convergence Tolerances:
Energy Change            TolE     ....  5.0000e-06 Eh
Max. Gradient            TolMAXG  ....  3.0000e-04 Eh/bohr
RMS Gradient             TolRMSG  ....  1.0000e-04 Eh/bohr
Max. Displacement        TolMAXD  ....  4.0000e-03 bohr
RMS Displacement         TolRMSD  ....  2.0000e-03 bohr
Strict Convergence                ....  False
------------------------------------------------------------------------------
                        ORCA OPTIMIZATION COORDINATE SETUP
------------------------------------------------------------------------------

The optimization will be done in new redundant internal coordinates
Making redundant internal coordinates   ...  (new redundants) done
Evaluating the initial hessian          ...  (Almloef) done
Evaluating the coordinates              ...  done
Calculating the B-matrix                .... done
Calculating the G-matrix                .... done
Diagonalizing the G-matrix              .... done
Imposing constraints:
 Iter   0:  RMS(Cart)=    0.0000702691 RMS(Int)=    0.0000721571
 Iter   1:  RMS(Cart)=    0.0000089856 RMS(Int)=    0.0000092270
 Iter   2:  RMS(Cart)=    0.0000011490 RMS(Int)=    0.0000011799
 Iter   3:  RMS(Cart)=    0.0000001469 RMS(Int)=    0.0000001509
 Iter   4:  RMS(Cart)=    0.0000000188 RMS(Int)=    0.0000000193
CONVERGED
The first mode is                       ....   13
The number of degrees of freedom        ....   24
Storing new coordinates                 .... done

    -----------------------------------------------------------------
                    Redundant Internal Coordinates


    -----------------------------------------------------------------
         Definition                    Initial Value    Approx d2E/dq
    -----------------------------------------------------------------
      1. B(C   1,C   0)                  1.5246         0.381088   
      2. B(H   2,C   0)                  1.1108         0.333597   
      3. B(H   3,C   0)                  1.1055         0.340231   
      4. B(H   4,C   0)                  1.1108         0.333560   
      5. B(C   5,C   1)                  1.5246         0.381074   
      6. B(H   6,C   5)                  1.1109         0.333511   
      7. B(H   7,C   5)                  1.1055         0.340218   
      8. B(H   8,C   5)                  1.1108         0.333609   
      9. B(O   9,H   7)                  2.5440         0.001546 C 
     10. B(O   9,C   1)                  1.2210         1.041090   
     11. A(H   2,C   0,H   4)          106.5103         0.283969   
     12. A(C   1,C   0,H   4)          110.5919         0.321321   
     13. A(H   3,C   0,H   4)          109.6524         0.284840   
     14. A(C   1,C   0,H   3)          109.8365         0.322364   
     15. A(C   1,C   0,H   2)          110.5378         0.321327   
     16. A(H   2,C   0,H   3)          109.6555         0.284845   
     17. A(C   0,C   1,O   9)          121.8364         0.433684   
     18. A(C   5,C   1,O   9)          121.8386         0.433681   
     19. A(C   0,C   1,C   5)          116.3250         0.365833   
     20. A(C   1,C   5,H   7)          109.8420         0.322361   
     21. A(H   6,C   5,H   7)          109.6154         0.284832   
     22. A(C   1,C   5,H   8)          110.6062         0.321327   
     23. A(H   6,C   5,H   8)          106.5046         0.283964   
     24. A(C   1,C   5,H   6)          110.5457         0.321311   
     25. A(H   7,C   5,H   8)          109.6698         0.284845   
     26. D(C   5,C   1,C   0,H   4)     58.7267         0.010833   
     27. D(O   9,C   1,C   0,H   4)   -121.2669         0.010833   
     28. D(O   9,C   1,C   0,H   3)     -0.1046         0.010833   
     29. D(C   5,C   1,C   0,H   3)    179.8890         0.010833   
     30. D(C   5,C   1,C   0,H   2)    -58.9799         0.010833   
     31. D(O   9,C   1,C   0,H   2)    121.0265         0.010833   
     32. D(H   6,C   5,C   1,C   0)    -59.2372         0.010832   
     33. D(H   6,C   5,C   1,O   9)    120.7564         0.010832   
     34. D(H   7,C   5,C   1,C   0)    179.6731         0.010832   
     35. D(H   7,C   5,C   1,O   9)     -0.3333         0.010832   
     36. D(H   8,C   5,C   1,C   0)     58.4762         0.010832   
     37. D(H   8,C   5,C   1,O   9)   -121.5302         0.010832   
    -----------------------------------------------------------------

Number of atoms                         .... 10
Number of degrees of freedom            .... 37

         *************************************************************
         *                GEOMETRY OPTIMIZATION CYCLE   1            *
         *************************************************************
---------------------------------
CARTESIAN COORDINATES (ANGSTROEM)
---------------------------------
  C      0.000015    0.000002   -0.000003
  C      1.524595   -0.000026    0.000043
  H     -0.389667    1.040217   -0.000015
  H     -0.375142   -0.537596    0.890090
  H     -0.390659   -0.483472   -0.920651
  C      2.200759    0.704181   -1.171026
  H      1.896792    0.239837   -2.133337
  H      3.299146    0.644927   -1.060974
  H      1.886896    1.768536   -1.221179
  O      2.168648   -0.534717    0.888988

----------------------------
CARTESIAN COORDINATES (A.U.)
----------------------------
  NO LB      ZA    FRAG     MASS         X           Y           Z
   0 C     4.0000    0    12.011    0.000028    0.000003   -0.000006
   1 C     4.0000    0    12.011    2.881066   -0.000049    0.000081
   2 H     1.0000    0     1.008   -0.736364    1.965725   -0.000028
   3 H     1.0000    0     1.008   -0.708915   -1.015909    1.682027
   4 H     1.0000    0     1.008   -0.738238   -0.913629   -1.739779
   5 C     4.0000    0    12.011    4.158833    1.330710   -2.212918
   6 H     1.0000    0     1.008    3.584418    0.453226   -4.031422
   7 H     1.0000    0     1.008    6.234482    1.218736   -2.004951
   8 H     1.0000    0     1.008    3.565717    3.342049   -2.307694
   9 O     6.0000    0    15.999    4.098151   -1.010468    1.679943

--------------------------------
INTERNAL COORDINATES (ANGSTROEM)
--------------------------------
 C      0   0   0     0.000000000000     0.00000000     0.00000000
 C      1   0   0     1.524580000000     0.00000000     0.00000000
 H      1   2   0     1.110810000000   110.53781000     0.00000000
 H      1   2   3     1.105450000000   109.83648000   238.86890000
 H      1   2   3     1.110840000000   110.59188000   117.70663000
 C      2   1   3     1.524590000000   116.32806000   301.02006000
 H      6   2   1     1.110880000000   110.54692000   300.76195000
 H      6   2   1     1.105460000000   109.83506000   179.67306000
 H      6   2   1     1.110800000000   110.60741000    58.47703000
 O      2   1   3     1.221010000000   121.83952000   121.02645000

---------------------------
INTERNAL COORDINATES (A.U.)
---------------------------
 C      0   0   0     0.000000000000     0.00000000     0.00000000
 C      1   0   0     2.881038669254     0.00000000     0.00000000
 H      1   2   0     2.099126686821   110.53781000     0.00000000
 H      1   2   3     2.088997754743   109.83648000   238.86890000
 H      1   2   3     2.099183378605   110.59188000   117.70663000
 C      2   1   3     2.881057566515   116.32806000   301.02006000
 H      6   2   1     2.099258967650   110.54692000   300.76195000
 H      6   2   1     2.089016652005   109.83506000   179.67306000
 H      6   2   1     2.099107789560   110.60741000    58.47703000
 O      2   1   3     2.307374506779   121.83952000   121.02645000

----------------------------
SLATER BASIS SET DIM=  22
----------------------------
  0 C     2 shells
 l=0 nsto= 1
    2       1.565085000000        1.000000000000
 l=1 nsto= 1
    2       1.842345000000        1.000000000000
  1 C     2 shells
 l=0 nsto= 1
    2       1.565085000000        1.000000000000
 l=1 nsto= 1
    2       1.842345000000        1.000000000000
  2 H     1 shells
 l=0 nsto= 1
    1       0.967807000000        1.000000000000
  3 H     1 shells
 l=0 nsto= 1
    1       0.967807000000        1.000000000000
  4 H     1 shells
 l=0 nsto= 1
    1       0.967807000000        1.000000000000
  5 C     2 shells
 l=0 nsto= 1
    2       1.565085000000        1.000000000000
 l=1 nsto= 1
    2       1.842345000000        1.000000000000
  6 H     1 shells
 l=0 nsto= 1
    1       0.967807000000        1.000000000000
  7 H     1 shells
 l=0 nsto= 1
    1       0.967807000000        1.000000000000
  8 H     1 shells
 l=0 nsto= 1
    1       0.967807000000        1.000000000000
  9 O     2 shells
 l=0 nsto= 1
    2       3.796544000000        1.000000000000
 l=1 nsto= 1
    2       2.389402000000        1.000000000000
------------------------------------------------------------------------------
                           ORCA NDO INTEGRAL CALCULATION
------------------------------------------------------------------------------

--------------
NDO PARAMETERS
--------------

Gamma integral treatment              ... MOPAC
Nuclear repulsuion treatment          ... AM1-style
Interaction factors:
s-s (sigma) =    1.0000
s-p (sigma) =    1.0000
s-d (sigma) =    1.0000
p-p (sigma) =    1.0000  p-p(pi) =    1.0000
p-d (sigma) =    1.0000  p-d(pi) =    1.0000
d-d (sigma) =    1.0000  d-d(pi) =    1.0000 d-d (delta) =    1.0000

--------------------------
Parameters for Element H :
--------------------------
 One-electron parameters (in eV)
  U(s)  =   -13.073321 Beta(s) =     5.626512 Neff(s) =     1.000000
 One-center electron repulsion parameters (in eV)
  G(s,s)=    14.794208
--------------------------
Parameters for Element C :
--------------------------
 One-electron parameters (in eV)
  U(s)  =   -47.270320 Beta(s) =    11.910015 Neff(s) =     2.000000
  U(p)  =   -36.266918 Beta(p) =     9.802755 Neff(p) =     2.000000 
 One-center electron repulsion parameters (in eV)
  G(s,s)=    11.200708
  G(s,p)=    10.265027 G(p,p)  =     9.627141
 Slater-Condon parameters (in eV)
 F2(p,p)=     7.3072 G1(s,p)=    6.8729
--------------------------
Parameters for Element O :
--------------------------
 One-electron parameters (in eV)
  U(s)  =   -86.993002 Beta(s) =    45.202651 Neff(s) =     2.000000
  U(p)  =   -71.879580 Beta(p) =    24.752515 Neff(p) =     4.000000 
 One-center electron repulsion parameters (in eV)
  G(s,s)=    15.755760
  G(s,p)=    10.621160 G(p,p)  =    12.822069
 Slater-Condon parameters (in eV)
 F2(p,p)=     5.1997 G1(s,p)=    1.7816

 Number of atoms                    ....   10
 Number of basis functions          ....   22

 Overlap integrals                  .... done
 One electron matrix                .... done
 Nuclear repulsion                  .... done
 Integral list                      .... done
 Electron-electron repulsion        .... done
-------------------------------------------------------------------------------
                                 ORCA SCF
-------------------------------------------------------------------------------

------------
SCF SETTINGS
------------
Hamiltonian:
 ZDO-Hamiltonian        Method          .... NDDO


General Settings:
 Integral files         IntName         .... Keto_enol_TS
 Hartree-Fock type      HFTyp           .... RHF
 Total Charge           Charge          ....    0
 Multiplicity           Mult            ....    1
 Number of Electrons    NEL             ....   24
 Basis Dimension        Dim             ....   22
 Nuclear Repulsion      ENuc            ....     56.6221065460 Eh

Convergence Acceleration:
 DIIS                   CNVDIIS         .... on
   Start iteration      DIISMaxIt       ....    12
   Startup error        DIISStart       ....  0.200000
   # of expansion vecs  DIISMaxEq       ....     5
   Bias factor          DIISBfac        ....   1.050
   Max. coefficient     DIISMaxC        ....  10.000
 Trust-Rad. Augm. Hess. CNVTRAH         .... off
 SOSCF                  CNVSOSCF        .... on
   Start iteration      SOSCFMaxIt      ....   150
   Startup grad/error   SOSCFStart      ....  0.003300
 Level Shifting         CNVShift        .... on
   Level shift para.    LevelShift      ....    0.2500
   Turn off err/grad.   ShiftErr        ....    0.0010
 Zerner damping         CNVZerner       .... off
 Static damping         CNVDamp         .... on
   Fraction old density DampFac         ....    0.7000
   Max. Damping (<1)    DampMax         ....    0.9800
   Min. Damping (>=0)   DampMin         ....    0.0000
   Turn off err/grad.   DampErr         ....    0.1000
 Fernandez-Rico         CNVRico         .... off

SCF Procedure:
 Maximum # iterations   MaxIter         ....   125
 SCF integral mode      SCFMode         .... Conventional
 Integral Buffer length BufferLength    .... 1048576
 Integral index format  IndFormat       ....     0
 Integral value format  ValFormat       ....     0
 Integral Storage       Thresh          ....  2.500e-11 Eh

Convergence Tolerance:
 Convergence Check Mode ConvCheckMode   .... Total+1el-Energy
 Convergence forced     ConvForced      .... 0
 Energy Change          TolE            ....  1.000e-08 Eh
 1-El. energy change                    ....  1.000e-05 Eh
 Orbital Gradient       TolG            ....  1.000e-05
 Orbital Rotation angle TolX            ....  1.000e-05
 DIIS Error             TolErr          ....  5.000e-07


Diagonalization of the overlap matrix:
Smallest eigenvalue                        ... 1.913e-01
Time for diagonalization                   ...    0.000 sec
Threshold for overlap eigenvalues          ... 1.000e-08
Number of eigenvalues below threshold      ... 0
Time for construction of square roots      ...    0.000 sec
Total time needed                          ...    0.001 sec

-------------------------------
INITIAL GUESS: EXTENDED HUECKEL
-------------------------------
EHT matrix was read from disk
EHT matrix was diagonalized
Initial density was built
                      ------------------
                      INITIAL GUESS DONE
                      ------------------

 InCore treatment chosen:
   Memory dedicated               ...    1024 MB
   Memory needed                  ...      0 MB
   Number of tiny    integrals    ...      14
   Number of small   integrals    ...       3
   Number of regular integrals    ...     904

--------------
SCF ITERATIONS
--------------
ITER       Energy         Delta-E        Max-DP      RMS-DP      [F,P]     Damp
  0    -27.1480333056   0.000000000000 0.05320106  0.00603597  0.1204767 0.7000
  1    -27.1743723825  -0.026339076968 0.05898734  0.00632109  0.0999352 0.7000
                               ***Turning on DIIS***
  2    -27.1975619813  -0.023189598735 0.17004629  0.01785127  0.0794552 0.0000
  3    -27.2600883221  -0.062526340805 0.03796526  0.00518978  0.0218308 0.0000
  4    -27.2578769825   0.002211339536 0.01538706  0.00284857  0.0087198 0.0000
  5    -27.2626859178  -0.004808935327 0.00868058  0.00155522  0.0041529 0.0000
                      *** Initiating the SOSCF procedure ***
                           *** Shutting down DIIS ***
                      *** Re-Reading the Fockian *** 
                      *** Removing any level shift *** 
ITER      Energy       Delta-E        Grad      Rot      Max-DP    RMS-DP
  6    -27.26785028  -0.0051643632  0.002670  0.002670  0.003838  0.000700
  7    -27.27192168  -0.0040714033  0.000691  0.001317  0.001498  0.000229
  8    -27.27193047  -0.0000087895  0.000348  0.001369  0.001525  0.000240
  9    -27.27193364  -0.0000031700  0.000031  0.000057  0.000064  0.000010
 10    -27.27193366  -0.0000000186  0.000014  0.000040  0.000047  0.000007
                 **** Energy Check signals convergence ****
              ***Rediagonalizing the Fockian in SOSCF/NRSCF***

               *****************************************************
               *                     SUCCESS                       *
               *           SCF CONVERGED AFTER  11 CYCLES          *
               *****************************************************


----------------
TOTAL SCF ENERGY
----------------

Total Energy       :          -27.27193367 Eh            -742.10704 eV

Components:
Nuclear Repulsion  :           56.62210655 Eh            1540.76585 eV
Electronic Energy  :          -83.89404021 Eh           -2282.87289 eV
One Electron Energy:         -150.85413491 Eh           -4104.94970 eV
Two Electron Energy:           66.96009469 Eh            1822.07681 eV


---------------
SCF CONVERGENCE
---------------

  Last Energy change         ...   -4.0349e-09  Tolerance :   1.0000e-08
  Last MAX-Density change    ...    1.0426e-05  Tolerance :   1.0000e-07
  Last RMS-Density change    ...    1.4191e-06  Tolerance :   5.0000e-09
  Last Orbital Gradient      ...    2.7233e-06  Tolerance :   1.0000e-05
  Last Orbital Rotation      ...    4.1939e-06  Tolerance :   1.0000e-05

             **** THE GBW FILE WAS UPDATED (Keto_enol_TS.gbw) ****
             **** DENSITY Keto_enol_TS.scfp WAS UPDATED ****
             **** ENERGY FILE WAS UPDATED (Keto_enol_TS.en.tmp) ****
             **** THE GBW FILE WAS UPDATED (Keto_enol_TS.gbw) ****
             **** DENSITY Keto_enol_TS.scfp WAS UPDATED ****
----------------
ORBITAL ENERGIES
----------------

  NO   OCC          E(Eh)            E(eV) 
   0   2.0000      -1.415587       -38.5201 
   1   2.0000      -1.173289       -31.9268 
   2   2.0000      -1.026470       -27.9317 
   3   2.0000      -0.713206       -19.4073 
   4   2.0000      -0.597859       -16.2686 
   5   2.0000      -0.595435       -16.2026 
   6   2.0000      -0.584009       -15.8917 
   7   2.0000      -0.507825       -13.8186 
   8   2.0000      -0.502213       -13.6659 
   9   2.0000      -0.489358       -13.3161 
  10   2.0000      -0.466785       -12.7019 
  11   2.0000      -0.394933       -10.7467 
  12   0.0000       0.028339         0.7711 
  13   0.0000       0.089270         2.4291 
  14   0.0000       0.129911         3.5351 
  15   0.0000       0.136445         3.7129 
  16   0.0000       0.140265         3.8168 
  17   0.0000       0.145858         3.9690 
  18   0.0000       0.147112         4.0031 
  19   0.0000       0.147433         4.0119 
  20   0.0000       0.170614         4.6426 
  21   0.0000       0.252997         6.8844 

                    ********************************
                    * MULLIKEN POPULATION ANALYSIS *
                    ********************************

-----------------------
MULLIKEN ATOMIC CHARGES
-----------------------
   0 C :   -0.380694
   1 C :    0.287757
   2 H :    0.128249
   3 H :    0.142824
   4 H :    0.128281
   5 C :   -0.380677
   6 H :    0.128238
   7 H :    0.142787
   8 H :    0.128267
   9 O :   -0.325032
Sum of atomic charges:   -0.0000000

--------------------------------
MULLIKEN REDUCED ORBITAL CHARGES
--------------------------------
  0 C s       :     1.527170  s :     1.527170
      pz      :     0.977425  p :     2.853524
      px      :     0.905015
      py      :     0.971084
  1 C s       :     1.305429  s :     1.305429
      pz      :     0.812148  p :     2.406813
      px      :     0.846756
      py      :     0.747910
  2 H s       :     0.871751  s :     0.871751
  3 H s       :     0.857176  s :     0.857176
  4 H s       :     0.871719  s :     0.871719
  5 C s       :     1.527146  s :     1.527146
      pz      :     0.930087  p :     2.853532
      px      :     0.969581
      py      :     0.953863
  6 H s       :     0.871762  s :     0.871762
  7 H s       :     0.857213  s :     0.857213
  8 H s       :     0.871733  s :     0.871733
  9 O s       :     1.890436  s :     1.890436
      pz      :     1.377480  p :     4.434596
      px      :     1.708464
      py      :     1.348652


                     *******************************
                     * LOEWDIN POPULATION ANALYSIS *
                     *******************************

----------------------
LOEWDIN ATOMIC CHARGES
----------------------
   0 C :   -0.166326
   1 C :    0.267021
   2 H :    0.060513
   3 H :    0.069190
   4 H :    0.060518
   5 C :   -0.166331
   6 H :    0.060523
   7 H :    0.069167
   8 H :    0.060495
   9 O :   -0.314769

-------------------------------
LOEWDIN REDUCED ORBITAL CHARGES
-------------------------------
  0 C s       :     1.152555  s :     1.152555
      pz      :     1.029555  p :     3.013770
      px      :     0.959709
      py      :     1.024507
  1 C s       :     1.220888  s :     1.220888
      pz      :     0.846396  p :     2.512090
      px      :     0.901050
      py      :     0.764644
  2 H s       :     0.939487  s :     0.939487
  3 H s       :     0.930810  s :     0.930810
  4 H s       :     0.939482  s :     0.939482
  5 C s       :     1.152563  s :     1.152563
      pz      :     0.983683  p :     3.013768
      px      :     1.022239
      py      :     1.007846
  6 H s       :     0.939477  s :     0.939477
  7 H s       :     0.930833  s :     0.930833
  8 H s       :     0.939505  s :     0.939505
  9 O s       :     1.865883  s :     1.865883
      pz      :     1.385154  p :     4.448886
      px      :     1.714100
      py      :     1.349633


                      *****************************
                      * MAYER POPULATION ANALYSIS *
                      *****************************

  NA   - Mulliken gross atomic population
  ZA   - Total nuclear charge
  QA   - Mulliken gross atomic charge
  VA   - Mayer's total valence
  BVA  - Mayer's bonded valence
  FA   - Mayer's free valence

  ATOM       NA         ZA         QA         VA         BVA        FA
  0 C      6.6384     4.0000    -2.6384     1.8305    11.4458    -9.6153
  1 C      5.6355     4.0000    -1.6355     2.8515     9.9663    -7.1148
  2 H      1.5575     1.0000    -0.5575     0.6892     3.4074    -2.7182
  3 H      1.5503     1.0000    -0.5503     0.6972     3.3303    -2.6331
  4 H      1.5575     1.0000    -0.5575     0.6892     3.4068    -2.7176
  5 C      6.6383     4.0000    -2.6383     1.8306    11.4456    -9.6149
  6 H      1.5575     1.0000    -0.5575     0.6892     3.4071    -2.7179
  7 H      1.5503     1.0000    -0.5503     0.6972     3.3303    -2.6332
  8 H      1.5575     1.0000    -0.5575     0.6891     3.4070    -2.7178
  9 O      7.0090     6.0000    -1.0090     1.5305     3.7583    -2.2278

  Mayer bond orders larger than 0.100000
B(  0-C ,  1-C ) :   2.7542 B(  0-C ,  2-H ) :   2.8516 B(  0-C ,  3-H ) :   2.8617 
B(  0-C ,  4-H ) :   2.8515 B(  1-C ,  2-H ) :   0.1306 B(  1-C ,  3-H ) :   0.1175 
B(  1-C ,  4-H ) :   0.1302 B(  1-C ,  5-C ) :   2.7540 B(  1-C ,  6-H ) :   0.1306 
B(  1-C ,  7-H ) :   0.1174 B(  1-C ,  8-H ) :   0.1300 B(  1-C ,  9-O ) :   3.7019 
B(  2-H ,  3-H ) :   0.1673 B(  2-H ,  4-H ) :   0.1904 B(  3-H ,  4-H ) :   0.1672 
B(  5-C ,  6-H ) :   2.8515 B(  5-C ,  7-H ) :   2.8617 B(  5-C ,  8-H ) :   2.8515 
B(  6-H ,  7-H ) :   0.1675 B(  6-H ,  8-H ) :   0.1904 B(  7-H ,  8-H ) :   0.1671 


-------
TIMINGS
-------

Total SCF time: 0 days 0 hours 0 min 0 sec 

Total time                  ....       0.184 sec
Sum of individual times     ....       0.026 sec  ( 14.3%)

Fock matrix formation       ....       0.022 sec  ( 11.9%)
Diagonalization             ....       0.001 sec  (  0.5%)
Density matrix formation    ....       0.000 sec  (  0.0%)
Population analysis         ....       0.001 sec  (  0.6%)
Initial guess               ....       0.000 sec  (  0.3%)
Orbital Transformation      ....       0.000 sec  (  0.0%)
Orbital Orthonormalization  ....       0.000 sec  (  0.0%)
DIIS solution               ....       0.001 sec  (  0.5%)
SOSCF solution              ....       0.001 sec  (  0.4%)

Maximum memory used throughout the entire SCF-calculation: 222.8 MB

-------------------------   --------------------
FINAL SINGLE POINT ENERGY       -27.271933666642
-------------------------   --------------------

------------------------------------------------------------------------------
                          SCF GRADIENT FOR NDO METHODS
------------------------------------------------------------------------------

The cartesian gradient:
   1   C   :   -0.009604144   -0.001695642    0.002785800
   2   C   :    0.002632544   -0.002205131    0.003714238
   3   H   :   -0.003165709    0.008950196   -0.001983815
   4   H   :    0.002446680   -0.004143774    0.006853958
   5   H   :   -0.003231912   -0.002417034   -0.008859871
   6   C   :    0.007180931    0.003809518   -0.006081499
   7   H   :   -0.004199567   -0.002834636   -0.008300496
   8   H   :    0.006097275   -0.002945835    0.004916192
   9   H   :   -0.004293415    0.008590096   -0.001514926
  10   O   :    0.006137317   -0.005107757    0.008470418

Norm of the cartesian gradient     ...    0.029751031
RMS gradient                       ...    0.005431770
MAX gradient                       ...    0.009604144
------------------------------------------------------------------------------
                         ORCA GEOMETRY RELAXATION STEP
------------------------------------------------------------------------------

Reading the OPT-File                    .... done
Getting information on internals        .... done
Copying old internal coords+grads       .... done
Making the new internal coordinates     .... (new redundants).... done
Validating the new internal coordinates .... (new redundants).... done
Calculating the B-matrix                .... done
Calculating the G,G- and P matrices     .... done
Transforming gradient to internals      .... done
Projecting the internal gradient        .... done
Number of atoms                         ....  10
Number of internal coordinates          ....  37
Current Energy                          ....   -27.271933667 Eh
Current gradient norm                   ....     0.029751031 Eh/bohr
Maximum allowed component of the step   ....  0.300
Current trust radius                    ....  0.300
Evaluating the initial hessian          ....  (Almloef) done
Projecting the Hessian                  .... done
Forming the augmented Hessian           .... done
Diagonalizing the augmented Hessian     .... done
Last element of RFO vector              ....  0.995926099
Lowest eigenvalues of augmented Hessian:
 -0.002925946  0.010829268  0.010831198  0.010833111  0.131676504
Length of the computed step             ....  0.090542059
The final length of the internal step   ....  0.090542059
Converting the step to cartesian space:
 Initial RMS(Int)=    0.0148850228
Transforming coordinates:
 Iter   0:  RMS(Cart)=    0.0253298989 RMS(Int)=    0.0148623100
 Iter   1:  RMS(Cart)=    0.0001796058 RMS(Int)=    0.0001582801
 Iter   2:  RMS(Cart)=    0.0000030852 RMS(Int)=    0.0000026450
 Iter   3:  RMS(Cart)=    0.0000001029 RMS(Int)=    0.0000000780
 Iter   4:  RMS(Cart)=    0.0000000017 RMS(Int)=    0.0000000016
Imposing constraints:
 Iter   0:  RMS(Cart)=    0.0000089178 RMS(Int)=    0.0000091137
 Iter   1:  RMS(Cart)=    0.0000011349 RMS(Int)=    0.0000011599
 Iter   2:  RMS(Cart)=    0.0000001444 RMS(Int)=    0.0000001476
 Iter   3:  RMS(Cart)=    0.0000000184 RMS(Int)=    0.0000000188
CONVERGED
done
Storing new coordinates                 .... done

                                .--------------------.
          ----------------------|Geometry convergence|-------------------------
          Item                value                   Tolerance       Converged
          ---------------------------------------------------------------------
          RMS gradient        0.0054710170            0.0001000000      NO
          MAX gradient        0.0135558706            0.0003000000      NO
          RMS step            0.0148850228            0.0020000000      NO
          MAX step            0.0354738538            0.0040000000      NO
          ........................................................
          Max(Bonds)      0.0188      Max(Angles)    1.23
          Max(Dihed)        0.13      Max(Improp)    0.00
          ---------------------------------------------------------------------

The optimization has not yet converged - more geometry cycles are needed


    ---------------------------------------------------------------------------
                         Redundant Internal Coordinates
                            (Angstroem and degrees)

        Definition                    Value    dE/dq     Step     New-Value
    ----------------------------------------------------------------------------
     1. B(C   1,C   0)                1.5246  0.013556 -0.0187    1.5059   
     2. B(H   2,C   0)                1.1108  0.009492 -0.0149    1.0959   
     3. B(H   3,C   0)                1.1055  0.006703 -0.0103    1.0951   
     4. B(H   4,C   0)                1.1108  0.009532 -0.0150    1.0959   
     5. B(C   5,C   1)                1.5246  0.012848 -0.0188    1.5059   
     6. B(H   6,C   5)                1.1109  0.009524 -0.0150    1.0959   
     7. B(H   7,C   5)                1.1055  0.006445 -0.0103    1.0951   
     8. B(H   8,C   5)                1.1108  0.009512 -0.0150    1.0958   
     9. B(O   9,H   7)                2.5440  0.000765  0.0000    2.5440 C 
    10. B(O   9,C   1)                1.2210  0.011237 -0.0059    1.2151   
    11. A(H   2,C   0,H   4)          106.51 -0.001116    0.29    106.80   
    12. A(C   1,C   0,H   4)          110.59  0.000900   -0.13    110.46   
    13. A(H   3,C   0,H   4)          109.65  0.003333   -0.66    108.99   
    14. A(C   1,C   0,H   3)          109.84 -0.006970    1.23    111.06   
    15. A(C   1,C   0,H   2)          110.54  0.000811   -0.11    110.43   
    16. A(H   2,C   0,H   3)          109.66  0.003356   -0.67    108.99   
    17. A(C   0,C   1,O   9)          121.84 -0.000718    0.18    122.02   
    18. A(C   5,C   1,O   9)          121.84 -0.002210    0.18    122.01   
    19. A(C   0,C   1,C   5)          116.32  0.002928   -0.35    115.97   
    20. A(C   1,C   5,H   7)          109.84 -0.008074    1.22    111.07   
    21. A(H   6,C   5,H   7)          109.62  0.003680   -0.65    108.96   
    22. A(C   1,C   5,H   8)          110.61  0.001107   -0.13    110.47   
    23. A(H   6,C   5,H   8)          106.50 -0.001107    0.29    106.80   
    24. A(C   1,C   5,H   6)          110.55  0.001039   -0.12    110.43   
    25. A(H   7,C   5,H   8)          109.67  0.003720   -0.67    109.00   
    26. D(C   5,C   1,C   0,H   4)     58.73 -0.000162    0.11     58.83   
    27. D(O   9,C   1,C   0,H   4)   -121.27 -0.000159    0.09   -121.17   
    28. D(O   9,C   1,C   0,H   3)     -0.10  0.000009   -0.01     -0.12   
    29. D(C   5,C   1,C   0,H   3)    179.89  0.000006    0.00    179.89   
    30. D(C   5,C   1,C   0,H   2)    -58.98  0.000154   -0.10    -59.08   
    31. D(O   9,C   1,C   0,H   2)    121.03  0.000157   -0.11    120.91   
    32. D(H   6,C   5,C   1,C   0)    -59.24  0.000003   -0.09    -59.33   
    33. D(H   6,C   5,C   1,O   9)    120.76  0.000001   -0.08    120.68   
    34. D(H   7,C   5,C   1,C   0)    179.67  0.000025   -0.01    179.67   
    35. D(H   7,C   5,C   1,O   9)     -0.33  0.000023    0.01     -0.33   
    36. D(H   8,C   5,C   1,C   0)     58.48 -0.000032    0.11     58.59   
    37. D(H   8,C   5,C   1,O   9)   -121.53 -0.000034    0.13   -121.40   
    ----------------------------------------------------------------------------

         *************************************************************
         *                GEOMETRY OPTIMIZATION CYCLE   2            *
         *************************************************************
---------------------------------
CARTESIAN COORDINATES (ANGSTROEM)
---------------------------------
  C      0.017183    0.003722   -0.006184
  C      1.523075    0.001208   -0.002149
  H     -0.363546    1.031343   -0.005425
  H     -0.379648   -0.523958    0.867516
  H     -0.364273   -0.474699   -0.915300
  C      2.186713    0.697812   -1.160630
  H      1.884990    0.236766   -2.107940
  H      3.277549    0.652936   -1.074585
  H      1.875369    1.747516   -1.206013
  O      2.163972   -0.530755    0.882647

----------------------------
CARTESIAN COORDINATES (A.U.)
----------------------------
  NO LB      ZA    FRAG     MASS         X           Y           Z
   0 C     4.0000    0    12.011    0.032471    0.007033   -0.011686
   1 C     4.0000    0    12.011    2.878195    0.002283   -0.004061
   2 H     1.0000    0     1.008   -0.687002    1.948956   -0.010252
   3 H     1.0000    0     1.008   -0.717432   -0.990137    1.639368
   4 H     1.0000    0     1.008   -0.688377   -0.897051   -1.729667
   5 C     4.0000    0    12.011    4.132288    1.318673   -2.193274
   6 H     1.0000    0     1.008    3.562116    0.447423   -3.983429
   7 H     1.0000    0     1.008    6.193671    1.233870   -2.030671
   8 H     1.0000    0     1.008    3.543934    3.302326   -2.279035
   9 O     6.0000    0    15.999    4.089314   -1.002982    1.667961

--------------------------------
INTERNAL COORDINATES (ANGSTROEM)
--------------------------------
 C      0   0   0     0.000000000000     0.00000000     0.00000000
 C      1   0   0     1.505899798450     0.00000000     0.00000000
 H      1   2   0     1.095883211542   110.42488525     0.00000000
 H      1   2   3     1.095113131254   111.06468654   238.96811856
 H      1   2   3     1.095850172325   110.46185785   117.91301083
 C      2   1   3     1.505905273881   115.96707761   300.92084423
 H      6   2   1     1.095899119481   110.42905418   300.67084031
 H      6   2   1     1.095144784758   111.07305844   179.66700758
 H      6   2   1     1.095843324863   110.47252890    58.58896486
 O      2   1   3     1.215153406288   122.01218800   120.91424674

---------------------------
INTERNAL COORDINATES (A.U.)
---------------------------
 C      0   0   0     0.000000000000     0.00000000     0.00000000
 C      1   0   0     2.845738204199     0.00000000     0.00000000
 H      1   2   0     2.070919144576   110.42488525     0.00000000
 H      1   2   3     2.069463903732   111.06468654   238.96811856
 H      1   2   3     2.070856709504   110.46185785   117.91301083
 C      2   1   3     2.845748551262   115.96707761   300.92084423
 H      6   2   1     2.070949206224   110.42905418   300.67084031
 H      6   2   1     2.069523720185   111.07305844   179.66700758
 H      6   2   1     2.070843769677   110.47252890    58.58896486
 O      2   1   3     2.296307148586   122.01218800   120.91424674

------------------------------------------------------------------------------
                           ORCA NDO INTEGRAL CALCULATION
------------------------------------------------------------------------------

--------------
NDO PARAMETERS
--------------

Gamma integral treatment              ... MOPAC
Nuclear repulsuion treatment          ... AM1-style
Interaction factors:
s-s (sigma) =    1.0000
s-p (sigma) =    1.0000
s-d (sigma) =    1.0000
p-p (sigma) =    1.0000  p-p(pi) =    1.0000
p-d (sigma) =    1.0000  p-d(pi) =    1.0000
d-d (sigma) =    1.0000  d-d(pi) =    1.0000 d-d (delta) =    1.0000

--------------------------
Parameters for Element H :
--------------------------
 One-electron parameters (in eV)
  U(s)  =   -13.073321 Beta(s) =     5.626512 Neff(s) =     1.000000
 One-center electron repulsion parameters (in eV)
  G(s,s)=    14.794208
--------------------------
Parameters for Element C :
--------------------------
 One-electron parameters (in eV)
  U(s)  =   -47.270320 Beta(s) =    11.910015 Neff(s) =     2.000000
  U(p)  =   -36.266918 Beta(p) =     9.802755 Neff(p) =     2.000000 
 One-center electron repulsion parameters (in eV)
  G(s,s)=    11.200708
  G(s,p)=    10.265027 G(p,p)  =     9.627141
 Slater-Condon parameters (in eV)
 F2(p,p)=     7.3072 G1(s,p)=    6.8729
--------------------------
Parameters for Element O :
--------------------------
 One-electron parameters (in eV)
  U(s)  =   -86.993002 Beta(s) =    45.202651 Neff(s) =     2.000000
  U(p)  =   -71.879580 Beta(p) =    24.752515 Neff(p) =     4.000000 
 One-center electron repulsion parameters (in eV)
  G(s,s)=    15.755760
  G(s,p)=    10.621160 G(p,p)  =    12.822069
 Slater-Condon parameters (in eV)
 F2(p,p)=     5.1997 G1(s,p)=    1.7816

 Number of atoms                    ....   10
 Number of basis functions          ....   22

 Overlap integrals                  .... done
 One electron matrix                .... done
 Nuclear repulsion                  .... done
 Integral list                      .... done
 Electron-electron repulsion        .... done

Diagonalization of the overlap matrix:
Smallest eigenvalue                        ... 1.838e-01
Time for diagonalization                   ...    0.000 sec
Threshold for overlap eigenvalues          ... 1.000e-08
Number of eigenvalues below threshold      ... 0
Time for construction of square roots      ...    0.000 sec
Total time needed                          ...    0.000 sec


 InCore treatment chosen:
   Memory dedicated               ...    1024 MB
   Memory needed                  ...      0 MB
   Number of tiny    integrals    ...       0
   Number of small   integrals    ...       4
   Number of regular integrals    ...     921

--------------
SCF ITERATIONS
--------------
ITER       Energy         Delta-E        Max-DP      RMS-DP      [F,P]     Damp
  0    -27.2731731425   0.000000000000 0.00183842  0.00023310  0.0051707 0.7000
                      *** Initiating the SOSCF procedure ***
                      *** Re-Reading the Fockian *** 
                      *** Removing any level shift *** 
ITER      Energy       Delta-E        Grad      Rot      Max-DP    RMS-DP
  1    -27.27322895  -0.0000558039  0.001257  0.001257  0.006086  0.000781
  2    -27.27341980  -0.0001908558  0.001360  0.001685  0.002834  0.000363
  3    -27.27345050  -0.0000306980  0.000481  0.001013  0.002098  0.000252
  4    -27.27345667  -0.0000061712  0.000063  0.000079  0.000132  0.000021
  5    -27.27345675  -0.0000000775  0.000023  0.000051  0.000088  0.000014
  6    -27.27345676  -0.0000000150  0.000004  0.000007  0.000014  0.000002
                  ***Gradient check signals convergence***
              ***Rediagonalizing the Fockian in SOSCF/NRSCF***

               *****************************************************
               *                     SUCCESS                       *
               *           SCF CONVERGED AFTER   7 CYCLES          *
               *****************************************************

Total Energy       :          -27.27345676 Eh            -742.14849 eV
  Last Energy change         ...   -5.5569e-10  Tolerance :   1.0000e-08
  Last MAX-Density change    ...    1.1807e-05  Tolerance :   1.0000e-07
             **** THE GBW FILE WAS UPDATED (Keto_enol_TS.gbw) ****
             **** DENSITY Keto_enol_TS.scfp WAS UPDATED ****
             **** ENERGY FILE WAS UPDATED (Keto_enol_TS.en.tmp) ****
             **** THE GBW FILE WAS UPDATED (Keto_enol_TS.gbw) ****
             **** DENSITY Keto_enol_TS.scfp WAS UPDATED ****
Total SCF time: 0 days 0 hours 0 min 0 sec 

Maximum memory used throughout the entire SCF-calculation: 222.8 MB

-------------------------   --------------------
FINAL SINGLE POINT ENERGY       -27.273456764547
-------------------------   --------------------

------------------------------------------------------------------------------
                          SCF GRADIENT FOR NDO METHODS
------------------------------------------------------------------------------

The cartesian gradient:
   1   C   :   -0.004036526   -0.000393163    0.000627582
   2   C   :    0.002217560   -0.001864732    0.003085692
   3   H   :    0.000561474   -0.001057356   -0.001599147
   4   H   :    0.003471812   -0.000032833    0.000045576
   5   H   :    0.000536503    0.001907910    0.000206714
   6   C   :    0.002444463    0.001770201   -0.002789989
   7   H   :   -0.000969848    0.001407661    0.000993380
   8   H   :   -0.001482074   -0.001628210    0.002662706
   9   H   :   -0.000968741   -0.001570886   -0.000799322
  10   O   :   -0.001774625    0.001461408   -0.002433193

Norm of the cartesian gradient     ...    0.010137366
RMS gradient                       ...    0.001850821
MAX gradient                       ...    0.004036526
------------------------------------------------------------------------------
                         ORCA GEOMETRY RELAXATION STEP
------------------------------------------------------------------------------

Reading the OPT-File                    .... done
Getting information on internals        .... done
Copying old internal coords+grads       .... done
Making the new internal coordinates     .... (new redundants).... done
Validating the new internal coordinates .... (new redundants).... done
Calculating the B-matrix                .... done
Calculating the G,G- and P matrices     .... done
Transforming gradient to internals      .... done
Projecting the internal gradient        .... done
Number of atoms                         ....  10
Number of internal coordinates          ....  37
Current Energy                          ....   -27.273456765 Eh
Current gradient norm                   ....     0.010137366 Eh/bohr
Maximum allowed component of the step   ....  0.300
Current trust radius                    ....  0.300
Updating the Hessian (BFGS)             .... done
Forming the augmented Hessian           .... done
Diagonalizing the augmented Hessian     .... done
Last element of RFO vector              ....  0.999582024
Lowest eigenvalues of augmented Hessian:
 -0.000201998  0.010829241  0.010831214  0.010833108  0.131590168
Length of the computed step             ....  0.028921895
The final length of the internal step   ....  0.028921895
Converting the step to cartesian space:
 Initial RMS(Int)=    0.0047547302
Transforming coordinates:
 Iter   0:  RMS(Cart)=    0.0066918299 RMS(Int)=    0.0047535219
 Iter   1:  RMS(Cart)=    0.0000394567 RMS(Int)=    0.0000380616
 Iter   2:  RMS(Cart)=    0.0000005232 RMS(Int)=    0.0000003263
 Iter   3:  RMS(Cart)=    0.0000000071 RMS(Int)=    0.0000000070
Imposing constraints:
 Iter   0:  RMS(Cart)=    0.0000007840 RMS(Int)=    0.0000008182
 Iter   1:  RMS(Cart)=    0.0000001016 RMS(Int)=    0.0000001061
 Iter   2:  RMS(Cart)=    0.0000000132 RMS(Int)=    0.0000000137
CONVERGED
done
Storing new coordinates                 .... done

                                .--------------------.
          ----------------------|Geometry convergence|-------------------------
          Item                value                   Tolerance       Converged
          ---------------------------------------------------------------------
          Energy change      -0.0015230979            0.0000050000      NO
          RMS gradient        0.0012885216            0.0001000000      NO
          MAX gradient        0.0043403095            0.0003000000      NO
          RMS step            0.0047547302            0.0020000000      NO
          MAX step            0.0147988710            0.0040000000      NO
          ........................................................
          Max(Bonds)      0.0031      Max(Angles)    0.85
          Max(Dihed)        0.31      Max(Improp)    0.00
          ---------------------------------------------------------------------

The optimization has not yet converged - more geometry cycles are needed


    ---------------------------------------------------------------------------
                         Redundant Internal Coordinates
                            (Angstroem and degrees)

        Definition                    Value    dE/dq     Step     New-Value
    ----------------------------------------------------------------------------
     1. B(C   1,C   0)                1.5059 -0.000530 -0.0005    1.5054   
     2. B(H   2,C   0)                1.0959 -0.001187  0.0009    1.0968   
     3. B(H   3,C   0)                1.0951 -0.001206  0.0012    1.0963   
     4. B(H   4,C   0)                1.0959 -0.001191  0.0009    1.0968   
     5. B(C   5,C   1)                1.5059  0.001115 -0.0031    1.5029   
     6. B(H   6,C   5)                1.0959 -0.001184  0.0009    1.0968   
     7. B(H   7,C   5)                1.0951 -0.000627  0.0002    1.0954   
     8. B(H   8,C   5)                1.0958 -0.001197  0.0009    1.0968   
     9. B(O   9,H   7)                2.5440 -0.001607  0.0000    2.5440 C 
    10. B(O   9,C   1)                1.2152 -0.002491  0.0009    1.2160   
    11. A(H   2,C   0,H   4)          106.80 -0.000916    0.31    107.11   
    12. A(C   1,C   0,H   4)          110.46  0.000488   -0.07    110.40   
    13. A(H   3,C   0,H   4)          108.99  0.002259   -0.54    108.45   
    14. A(C   1,C   0,H   3)          111.06 -0.004340    0.85    111.91   
    15. A(C   1,C   0,H   2)          110.42  0.000436   -0.05    110.37   
    16. A(H   2,C   0,H   3)          108.99  0.002277   -0.54    108.45   
    17. A(C   0,C   1,O   9)          122.01 -0.001740    0.26    122.27   
    18. A(C   5,C   1,O   9)          122.02  0.001408   -0.20    121.82   
    19. A(C   0,C   1,C   5)          115.97  0.000332   -0.06    115.91   
    20. A(C   1,C   5,H   7)          111.07 -0.002020    0.34    111.41   
    21. A(H   6,C   5,H   7)          108.96  0.001482   -0.41    108.55   
    22. A(C   1,C   5,H   8)          110.47  0.000058    0.03    110.51   
    23. A(H   6,C   5,H   8)          106.80 -0.000960    0.41    107.21   
    24. A(C   1,C   5,H   6)          110.43  0.000027    0.04    110.47   
    25. A(H   7,C   5,H   8)          109.00  0.001505   -0.43    108.57   
    26. D(C   5,C   1,C   0,H   4)     58.83 -0.000278    0.14     58.98   
    27. D(O   9,C   1,C   0,H   4)   -121.17 -0.000281    0.16   -121.02   
    28. D(O   9,C   1,C   0,H   3)     -0.12  0.000003   -0.00     -0.12   
    29. D(C   5,C   1,C   0,H   3)    179.89  0.000006   -0.01    179.87   
    30. D(C   5,C   1,C   0,H   2)    -59.08  0.000280   -0.17    -59.25   
    31. D(O   9,C   1,C   0,H   2)    120.91  0.000277   -0.15    120.76   
    32. D(H   6,C   5,C   1,C   0)    -59.33  0.000552   -0.24    -59.57   
    33. D(H   6,C   5,C   1,O   9)    120.68  0.000555   -0.26    120.42   
    34. D(H   7,C   5,C   1,C   0)    179.67  0.000010    0.02    179.69   
    35. D(H   7,C   5,C   1,O   9)     -0.33  0.000013    0.01     -0.32   
    36. D(H   8,C   5,C   1,C   0)     58.59 -0.000580    0.31     58.90   
    37. D(H   8,C   5,C   1,O   9)   -121.40 -0.000577    0.30   -121.10   
    ----------------------------------------------------------------------------

         *************************************************************
         *                GEOMETRY OPTIMIZATION CYCLE   3            *
         *************************************************************
---------------------------------
CARTESIAN COORDINATES (ANGSTROEM)
---------------------------------
  C      0.018895    0.003487   -0.005831
  C      1.524269    0.001367   -0.002080
  H     -0.361457    1.032212   -0.002230
  H     -0.393152   -0.521811    0.863776
  H     -0.361761   -0.478095   -0.914714
  C      2.184714    0.696828   -1.159113
  H      1.885908    0.232739   -2.106904
  H      3.276448    0.655811   -1.080052
  H      1.876904    1.748657   -1.201624
  O      2.170615   -0.529304    0.880706

----------------------------
CARTESIAN COORDINATES (A.U.)
----------------------------
  NO LB      ZA    FRAG     MASS         X           Y           Z
   0 C     4.0000    0    12.011    0.035706    0.006589   -0.011019
   1 C     4.0000    0    12.011    2.880451    0.002583   -0.003930
   2 H     1.0000    0     1.008   -0.683054    1.950598   -0.004214
   3 H     1.0000    0     1.008   -0.742949   -0.986080    1.632300
   4 H     1.0000    0     1.008   -0.683630   -0.903469   -1.728558
   5 C     4.0000    0    12.011    4.128512    1.316814   -2.190406
   6 H     1.0000    0     1.008    3.563849    0.439814   -3.981472
   7 H     1.0000    0     1.008    6.191590    1.239303   -2.041002
   8 H     1.0000    0     1.008    3.546835    3.304483   -2.270739
   9 O     6.0000    0    15.999    4.101868   -1.000239    1.664294

--------------------------------
INTERNAL COORDINATES (ANGSTROEM)
--------------------------------
 C      0   0   0     0.000000000000     0.00000000     0.00000000
 C      1   0   0     1.505380314176     0.00000000     0.00000000
 H      1   2   0     1.096793289151   110.37093483     0.00000000
 H      1   2   3     1.096328459743   111.91244535   239.12081845
 H      1   2   3     1.096762819834   110.39666709   118.22223497
 C      2   1   3     1.502857440061   115.90548021   300.75321110
 H      6   2   1     1.096800623917   110.47275400   300.42858615
 H      6   2   1     1.095361174488   111.41414754   179.69164543
 H      6   2   1     1.096767451607   110.50589179    58.90376882
 O      2   1   3     1.216012335359   122.27278113   120.76060392

---------------------------
INTERNAL COORDINATES (A.U.)
---------------------------
 C      0   0   0     0.000000000000     0.00000000     0.00000000
 C      1   0   0     2.844756521189     0.00000000     0.00000000
 H      1   2   0     2.072638942019   110.37093483     0.00000000
 H      1   2   3     2.071760541737   111.91244535   239.12081845
 H      1   2   3     2.072581363354   110.39666709   118.22223497
 C      2   1   3     2.839988980042   115.90548021   300.75321110
 H      6   2   1     2.072652802718   110.47275400   300.42858615
 H      6   2   1     2.069932637512   111.41414754   179.69164543
 H      6   2   1     2.072590116135   110.50589179    58.90376882
 O      2   1   3     2.297930289298   122.27278113   120.76060392

------------------------------------------------------------------------------
                           ORCA NDO INTEGRAL CALCULATION
------------------------------------------------------------------------------

--------------
NDO PARAMETERS
--------------

Gamma integral treatment              ... MOPAC
Nuclear repulsuion treatment          ... AM1-style
Interaction factors:
s-s (sigma) =    1.0000
s-p (sigma) =    1.0000
s-d (sigma) =    1.0000
p-p (sigma) =    1.0000  p-p(pi) =    1.0000
p-d (sigma) =    1.0000  p-d(pi) =    1.0000
d-d (sigma) =    1.0000  d-d(pi) =    1.0000 d-d (delta) =    1.0000

--------------------------
Parameters for Element H :
--------------------------
 One-electron parameters (in eV)
  U(s)  =   -13.073321 Beta(s) =     5.626512 Neff(s) =     1.000000
 One-center electron repulsion parameters (in eV)
  G(s,s)=    14.794208
--------------------------
Parameters for Element C :
--------------------------
 One-electron parameters (in eV)
  U(s)  =   -47.270320 Beta(s) =    11.910015 Neff(s) =     2.000000
  U(p)  =   -36.266918 Beta(p) =     9.802755 Neff(p) =     2.000000 
 One-center electron repulsion parameters (in eV)
  G(s,s)=    11.200708
  G(s,p)=    10.265027 G(p,p)  =     9.627141
 Slater-Condon parameters (in eV)
 F2(p,p)=     7.3072 G1(s,p)=    6.8729
--------------------------
Parameters for Element O :
--------------------------
 One-electron parameters (in eV)
  U(s)  =   -86.993002 Beta(s) =    45.202651 Neff(s) =     2.000000
  U(p)  =   -71.879580 Beta(p) =    24.752515 Neff(p) =     4.000000 
 One-center electron repulsion parameters (in eV)
  G(s,s)=    15.755760
  G(s,p)=    10.621160 G(p,p)  =    12.822069
 Slater-Condon parameters (in eV)
 F2(p,p)=     5.1997 G1(s,p)=    1.7816

 Number of atoms                    ....   10
 Number of basis functions          ....   22

 Overlap integrals                  .... done
 One electron matrix                .... done
 Nuclear repulsion                  .... done
 Integral list                      .... done
 Electron-electron repulsion        .... done

Diagonalization of the overlap matrix:
Smallest eigenvalue                        ... 1.838e-01
Time for diagonalization                   ...    0.000 sec
Threshold for overlap eigenvalues          ... 1.000e-08
Number of eigenvalues below threshold      ... 0
Time for construction of square roots      ...    0.000 sec
Total time needed                          ...    0.001 sec


 InCore treatment chosen:
   Memory dedicated               ...    1024 MB
   Memory needed                  ...      0 MB
   Number of tiny    integrals    ...       0
   Number of small   integrals    ...       6
   Number of regular integrals    ...     919

--------------
SCF ITERATIONS
--------------
ITER       Energy         Delta-E        Max-DP      RMS-DP      [F,P]     Damp
                      *** Initiating the SOSCF procedure ***
                      *** Re-Reading the Fockian *** 
                      *** Removing any level shift *** 
ITER      Energy       Delta-E        Grad      Rot      Max-DP    RMS-DP
  0    -27.27356644 -27.2735664403  0.001372  0.001372  0.002127  0.000267
  1    -27.27359506  -0.0000286214  0.000720  0.000840  0.001640  0.000197
  2    -27.27360495  -0.0000098874  0.000300  0.000715  0.001290  0.000160
  3    -27.27360740  -0.0000024467  0.000075  0.000140  0.000180  0.000019
  4    -27.27360746  -0.0000000620  0.000035  0.000119  0.000153  0.000017
  5    -27.27360748  -0.0000000204  0.000004  0.000010  0.000012  0.000002
                 **** Energy Check signals convergence ****
              ***Rediagonalizing the Fockian in SOSCF/NRSCF***

               *****************************************************
               *                     SUCCESS                       *
               *           SCF CONVERGED AFTER   6 CYCLES          *
               *****************************************************

Total Energy       :          -27.27360748 Eh            -742.15259 eV
  Last Energy change         ...   -5.5051e-10  Tolerance :   1.0000e-08
  Last MAX-Density change    ...    7.5712e-06  Tolerance :   1.0000e-07
             **** THE GBW FILE WAS UPDATED (Keto_enol_TS.gbw) ****
             **** DENSITY Keto_enol_TS.scfp WAS UPDATED ****
             **** ENERGY FILE WAS UPDATED (Keto_enol_TS.en.tmp) ****
             **** THE GBW FILE WAS UPDATED (Keto_enol_TS.gbw) ****
             **** DENSITY Keto_enol_TS.scfp WAS UPDATED ****
Total SCF time: 0 days 0 hours 0 min 0 sec 

Maximum memory used throughout the entire SCF-calculation: 222.8 MB

-------------------------   --------------------
FINAL SINGLE POINT ENERGY       -27.273607478799
-------------------------   --------------------

------------------------------------------------------------------------------
                          SCF GRADIENT FOR NDO METHODS
------------------------------------------------------------------------------

The cartesian gradient:
   1   C   :   -0.002346875   -0.000202106    0.000306685
   2   C   :    0.001581489   -0.000252552    0.000459124
   3   H   :    0.000306909   -0.000562733   -0.000963292
   4   H   :    0.001828131   -0.000072569    0.000113890
   5   H   :    0.000291823    0.001115204    0.000060921
   6   C   :    0.001333336    0.000314882   -0.000445443
   7   H   :   -0.000605146    0.000675160    0.000538135
   8   H   :   -0.001576956   -0.001277733    0.002097377
   9   H   :   -0.000609497   -0.000811203   -0.000358509
  10   O   :   -0.000203215    0.001073649   -0.001808888

Norm of the cartesian gradient     ...    0.005637338
RMS gradient                       ...    0.001029232
MAX gradient                       ...    0.002346875
------------------------------------------------------------------------------
                         ORCA GEOMETRY RELAXATION STEP
------------------------------------------------------------------------------

Reading the OPT-File                    .... done
Getting information on internals        .... done
Copying old internal coords+grads       .... done
Making the new internal coordinates     .... (new redundants).... done
Validating the new internal coordinates .... (new redundants).... done
Calculating the B-matrix                .... done
Calculating the G,G- and P matrices     .... done
Transforming gradient to internals      .... done
Projecting the internal gradient        .... done
Number of atoms                         ....  10
Number of internal coordinates          ....  37
Current Energy                          ....   -27.273607479 Eh
Current gradient norm                   ....     0.005637338 Eh/bohr
Maximum allowed component of the step   ....  0.300
Current trust radius                    ....  0.300
Updating the Hessian (BFGS)             .... done
Forming the augmented Hessian           .... done
Diagonalizing the augmented Hessian     .... done
Last element of RFO vector              ....  0.999449810
Lowest eigenvalues of augmented Hessian:
 -0.000117664  0.010827002  0.010832035  0.010833083  0.090332611
Length of the computed step             ....  0.033185661
The final length of the internal step   ....  0.033185661
Converting the step to cartesian space:
 Initial RMS(Int)=    0.0054556891
Transforming coordinates:
 Iter   0:  RMS(Cart)=    0.0072642169 RMS(Int)=    0.0054529819
 Iter   1:  RMS(Cart)=    0.0000437596 RMS(Int)=    0.0000413569
 Iter   2:  RMS(Cart)=    0.0000005864 RMS(Int)=    0.0000003698
 Iter   3:  RMS(Cart)=    0.0000000084 RMS(Int)=    0.0000000082
Imposing constraints:
 Iter   0:  RMS(Cart)=    0.0000013797 RMS(Int)=    0.0000014397
 Iter   1:  RMS(Cart)=    0.0000001789 RMS(Int)=    0.0000001867
 Iter   2:  RMS(Cart)=    0.0000000232 RMS(Int)=    0.0000000242
CONVERGED
done
Storing new coordinates                 .... done

                                .--------------------.
          ----------------------|Geometry convergence|-------------------------
          Item                value                   Tolerance       Converged
          ---------------------------------------------------------------------
          Energy change      -0.0001507143            0.0000050000      NO
          RMS gradient        0.0006583063            0.0001000000      NO
          MAX gradient        0.0022859716            0.0003000000      NO
          RMS step            0.0054556891            0.0020000000      NO
          MAX step            0.0161482959            0.0040000000      NO
          ........................................................
          Max(Bonds)      0.0013      Max(Angles)    0.93
          Max(Dihed)        0.45      Max(Improp)    0.00
          ---------------------------------------------------------------------

The optimization has not yet converged - more geometry cycles are needed


    ---------------------------------------------------------------------------
                         Redundant Internal Coordinates
                            (Angstroem and degrees)

        Definition                    Value    dE/dq     Step     New-Value
    ----------------------------------------------------------------------------
     1. B(C   1,C   0)                1.5054 -0.000078 -0.0011    1.5043   
     2. B(H   2,C   0)                1.0968 -0.000637  0.0011    1.0979   
     3. B(H   3,C   0)                1.0963 -0.000562  0.0012    1.0975   
     4. B(H   4,C   0)                1.0968 -0.000641  0.0011    1.0979   
     5. B(C   5,C   1)                1.5029 -0.000723 -0.0002    1.5027   
     6. B(H   6,C   5)                1.0968 -0.000586  0.0009    1.0977   
     7. B(H   7,C   5)                1.0954 -0.000710  0.0013    1.0966   
     8. B(H   8,C   5)                1.0968 -0.000594  0.0009    1.0977   
     9. B(O   9,H   7)                2.5440 -0.001837  0.0000    2.5440 C 
    10. B(O   9,C   1)                1.2160 -0.000913  0.0005    1.2165   
    11. A(H   2,C   0,H   4)          107.11 -0.000569    0.42    107.53   
    12. A(C   1,C   0,H   4)          110.40  0.000244   -0.06    110.34   
    13. A(H   3,C   0,H   4)          108.45  0.001246   -0.64    107.81   
    14. A(C   1,C   0,H   3)          111.91 -0.002286    0.93    112.84   
    15. A(C   1,C   0,H   2)          110.37  0.000213   -0.05    110.33   
    16. A(H   2,C   0,H   3)          108.45  0.001258   -0.64    107.81   
    17. A(C   0,C   1,O   9)          122.27 -0.000689    0.25    122.52   
    18. A(C   5,C   1,O   9)          121.82  0.000714   -0.27    121.56   
    19. A(C   0,C   1,C   5)          115.91 -0.000025    0.02    115.92   
    20. A(C   1,C   5,H   7)          111.41 -0.000913    0.24    111.65   
    21. A(H   6,C   5,H   7)          108.55  0.000819   -0.47    108.07   
    22. A(C   1,C   5,H   8)          110.51 -0.000121    0.11    110.62   
    23. A(H   6,C   5,H   8)          107.21 -0.000427    0.47    107.68   
    24. A(C   1,C   5,H   6)          110.47 -0.000138    0.13    110.60   
    25. A(H   7,C   5,H   8)          108.57  0.000832   -0.49    108.08   
    26. D(C   5,C   1,C   0,H   4)     58.98 -0.000212    0.24     59.22   
    27. D(O   9,C   1,C   0,H   4)   -121.02 -0.000207    0.19   -120.82   
    28. D(O   9,C   1,C   0,H   3)     -0.12  0.000005   -0.03     -0.15   
    29. D(C   5,C   1,C   0,H   3)    179.87  0.000000    0.01    179.89   
    30. D(C   5,C   1,C   0,H   2)    -59.25  0.000207   -0.21    -59.46   
    31. D(O   9,C   1,C   0,H   2)    120.76  0.000212   -0.26    120.50   
    32. D(H   6,C   5,C   1,C   0)    -59.57  0.000339   -0.33    -59.91   
    33. D(H   6,C   5,C   1,O   9)    120.42  0.000335   -0.29    120.13   
    34. D(H   7,C   5,C   1,C   0)    179.69  0.000006    0.02    179.71   
    35. D(H   7,C   5,C   1,O   9)     -0.32  0.000002    0.07     -0.25   
    36. D(H   8,C   5,C   1,C   0)     58.90 -0.000353    0.40     59.30   
    37. D(H   8,C   5,C   1,O   9)   -121.10 -0.000357    0.45   -120.66   
    ----------------------------------------------------------------------------

         *************************************************************
         *                GEOMETRY OPTIMIZATION CYCLE   4            *
         *************************************************************
---------------------------------
CARTESIAN COORDINATES (ANGSTROEM)
---------------------------------
  C      0.019666    0.002524   -0.004428
  C      1.523950    0.001150   -0.002038
  H     -0.360760    1.032348    0.003386
  H     -0.408149   -0.519898    0.860736
  H     -0.360896   -0.483651   -0.912219
  C      2.183317    0.696852   -1.159338
  H      1.889812    0.230128   -2.108550
  H      3.276739    0.658198   -1.084962
  H      1.881602    1.751533   -1.199141
  O      2.176104   -0.527295    0.878490

----------------------------
CARTESIAN COORDINATES (A.U.)
----------------------------
  NO LB      ZA    FRAG     MASS         X           Y           Z
   0 C     4.0000    0    12.011    0.037162    0.004770   -0.008367
   1 C     4.0000    0    12.011    2.879848    0.002173   -0.003851
   2 H     1.0000    0     1.008   -0.681738    1.950855    0.006398
   3 H     1.0000    0     1.008   -0.771290   -0.982465    1.626556
   4 H     1.0000    0     1.008   -0.681995   -0.913967   -1.723844
   5 C     4.0000    0    12.011    4.125870    1.316860   -2.190831
   6 H     1.0000    0     1.008    3.571228    0.434879   -3.984581
   7 H     1.0000    0     1.008    6.192140    1.243814   -2.050281
   8 H     1.0000    0     1.008    3.555712    3.309918   -2.266049
   9 O     6.0000    0    15.999    4.112240   -0.996443    1.660105

--------------------------------
INTERNAL COORDINATES (ANGSTROEM)
--------------------------------
 C      0   0   0     0.000000000000     0.00000000     0.00000000
 C      1   0   0     1.504287134254     0.00000000     0.00000000
 H      1   2   0     1.097871485934   110.32574843     0.00000000
 H      1   2   3     1.097478666982   112.83806668   239.34414521
 H      1   2   3     1.097851727496   110.33759580   118.67316204
 C      2   1   3     1.502700422268   115.92156310   300.54232744
 H      6   2   1     1.097715505124   110.59700683   300.09386816
 H      6   2   1     1.096630900929   111.65103910   179.71049091
 H      6   2   1     1.097710421187   110.61834414    59.30304809
 O      2   1   3     1.216506186428   122.52268506   120.50262123

---------------------------
INTERNAL COORDINATES (A.U.)
---------------------------
 C      0   0   0     0.000000000000     0.00000000     0.00000000
 C      1   0   0     2.842690710521     0.00000000     0.00000000
 H      1   2   0     2.074676438656   110.32574843     0.00000000
 H      1   2   3     2.073934118417   112.83806668   239.34414521
 H      1   2   3     2.074639100619   110.33759580   118.67316204
 C      2   1   3     2.839692259415   115.92156310   300.54232744
 H      6   2   1     2.074381677643   110.59700683   300.09386816
 H      6   2   1     2.072332072751   111.65103910   179.71049091
 H      6   2   1     2.074372070395   110.61834414    59.30304809
 O      2   1   3     2.298863532569   122.52268506   120.50262123

------------------------------------------------------------------------------
                           ORCA NDO INTEGRAL CALCULATION
------------------------------------------------------------------------------

--------------
NDO PARAMETERS
--------------

Gamma integral treatment              ... MOPAC
Nuclear repulsuion treatment          ... AM1-style
Interaction factors:
s-s (sigma) =    1.0000
s-p (sigma) =    1.0000
s-d (sigma) =    1.0000
p-p (sigma) =    1.0000  p-p(pi) =    1.0000
p-d (sigma) =    1.0000  p-d(pi) =    1.0000
d-d (sigma) =    1.0000  d-d(pi) =    1.0000 d-d (delta) =    1.0000

--------------------------
Parameters for Element H :
--------------------------
 One-electron parameters (in eV)
  U(s)  =   -13.073321 Beta(s) =     5.626512 Neff(s) =     1.000000
 One-center electron repulsion parameters (in eV)
  G(s,s)=    14.794208
--------------------------
Parameters for Element C :
--------------------------
 One-electron parameters (in eV)
  U(s)  =   -47.270320 Beta(s) =    11.910015 Neff(s) =     2.000000
  U(p)  =   -36.266918 Beta(p) =     9.802755 Neff(p) =     2.000000 
 One-center electron repulsion parameters (in eV)
  G(s,s)=    11.200708
  G(s,p)=    10.265027 G(p,p)  =     9.627141
 Slater-Condon parameters (in eV)
 F2(p,p)=     7.3072 G1(s,p)=    6.8729
--------------------------
Parameters for Element O :
--------------------------
 One-electron parameters (in eV)
  U(s)  =   -86.993002 Beta(s) =    45.202651 Neff(s) =     2.000000
  U(p)  =   -71.879580 Beta(p) =    24.752515 Neff(p) =     4.000000 
 One-center electron repulsion parameters (in eV)
  G(s,s)=    15.755760
  G(s,p)=    10.621160 G(p,p)  =    12.822069
 Slater-Condon parameters (in eV)
 F2(p,p)=     5.1997 G1(s,p)=    1.7816

 Number of atoms                    ....   10
 Number of basis functions          ....   22

 Overlap integrals                  .... done
 One electron matrix                .... done
 Nuclear repulsion                  .... done
 Integral list                      .... done
 Electron-electron repulsion        .... done

Diagonalization of the overlap matrix:
Smallest eigenvalue                        ... 1.842e-01
Time for diagonalization                   ...    0.000 sec
Threshold for overlap eigenvalues          ... 1.000e-08
Number of eigenvalues below threshold      ... 0
Time for construction of square roots      ...    0.000 sec
Total time needed                          ...    0.001 sec


 InCore treatment chosen:
   Memory dedicated               ...    1024 MB
   Memory needed                  ...      0 MB
   Number of tiny    integrals    ...       0
   Number of small   integrals    ...      18
   Number of regular integrals    ...     907

--------------
SCF ITERATIONS
--------------
ITER       Energy         Delta-E        Max-DP      RMS-DP      [F,P]     Damp
                      *** Initiating the SOSCF procedure ***
                      *** Re-Reading the Fockian *** 
                      *** Removing any level shift *** 
ITER      Energy       Delta-E        Grad      Rot      Max-DP    RMS-DP
  0    -27.27362594 -27.2736259411  0.001502  0.001502  0.002317  0.000274
  1    -27.27365653  -0.0000305914  0.000724  0.000846  0.001622  0.000199
  2    -27.27366667  -0.0000101402  0.000299  0.000801  0.001199  0.000161
[...]
  1 C     2 shells
 l=0 nsto= 1
    2       1.565085000000        1.000000000000
 l=1 nsto= 1
    2       1.842345000000        1.000000000000
  2 H     1 shells
 l=0 nsto= 1
    1       0.967807000000        1.000000000000
  3 H     1 shells
 l=0 nsto= 1
    1       0.967807000000        1.000000000000
  4 H     1 shells
 l=0 nsto= 1
    1       0.967807000000        1.000000000000
  5 C     2 shells
 l=0 nsto= 1
    2       1.565085000000        1.000000000000
 l=1 nsto= 1
    2       1.842345000000        1.000000000000
  6 H     1 shells
 l=0 nsto= 1
    1       0.967807000000        1.000000000000
  7 H     1 shells
 l=0 nsto= 1
    1       0.967807000000        1.000000000000
  8 H     1 shells
 l=0 nsto= 1
    1       0.967807000000        1.000000000000
  9 O     2 shells
 l=0 nsto= 1
    2       3.796544000000        1.000000000000
 l=1 nsto= 1
    2       2.389402000000        1.000000000000
------------------------------------------------------------------------------
                           ORCA NDO INTEGRAL CALCULATION
------------------------------------------------------------------------------

--------------
NDO PARAMETERS
--------------

Gamma integral treatment              ... MOPAC
Nuclear repulsuion treatment          ... AM1-style
Interaction factors:
s-s (sigma) =    1.0000
s-p (sigma) =    1.0000
s-d (sigma) =    1.0000
p-p (sigma) =    1.0000  p-p(pi) =    1.0000
p-d (sigma) =    1.0000  p-d(pi) =    1.0000
d-d (sigma) =    1.0000  d-d(pi) =    1.0000 d-d (delta) =    1.0000

--------------------------
Parameters for Element H :
--------------------------
 One-electron parameters (in eV)
  U(s)  =   -13.073321 Beta(s) =     5.626512 Neff(s) =     1.000000
 One-center electron repulsion parameters (in eV)
  G(s,s)=    14.794208
--------------------------
Parameters for Element C :
--------------------------
 One-electron parameters (in eV)
  U(s)  =   -47.270320 Beta(s) =    11.910015 Neff(s) =     2.000000
  U(p)  =   -36.266918 Beta(p) =     9.802755 Neff(p) =     2.000000 
 One-center electron repulsion parameters (in eV)
  G(s,s)=    11.200708
  G(s,p)=    10.265027 G(p,p)  =     9.627141
 Slater-Condon parameters (in eV)
 F2(p,p)=     7.3072 G1(s,p)=    6.8729
--------------------------
Parameters for Element O :
--------------------------
 One-electron parameters (in eV)
  U(s)  =   -86.993002 Beta(s) =    45.202651 Neff(s) =     2.000000
  U(p)  =   -71.879580 Beta(p) =    24.752515 Neff(p) =     4.000000 
 One-center electron repulsion parameters (in eV)
  G(s,s)=    15.755760
  G(s,p)=    10.621160 G(p,p)  =    12.822069
 Slater-Condon parameters (in eV)
 F2(p,p)=     5.1997 G1(s,p)=    1.7816

 Number of atoms                    ....   10
 Number of basis functions          ....   22

 Overlap integrals                  .... done
 One electron matrix                .... done
 Nuclear repulsion                  .... done
 Integral list                      .... done
 Electron-electron repulsion        .... done
-------------------------------------------------------------------------------
                                 ORCA SCF
-------------------------------------------------------------------------------

------------
SCF SETTINGS
------------
Hamiltonian:
 ZDO-Hamiltonian        Method          .... NDDO


General Settings:
 Integral files         IntName         .... Keto_enol_TS
 Hartree-Fock type      HFTyp           .... RHF
 Total Charge           Charge          ....    0
 Multiplicity           Mult            ....    1
 Number of Electrons    NEL             ....   24
 Basis Dimension        Dim             ....   22
 Nuclear Repulsion      ENuc            ....     58.0977637888 Eh

Convergence Acceleration:
 DIIS                   CNVDIIS         .... on
   Start iteration      DIISMaxIt       ....    12
   Startup error        DIISStart       ....  0.200000
   # of expansion vecs  DIISMaxEq       ....     5
   Bias factor          DIISBfac        ....   1.050
   Max. coefficient     DIISMaxC        ....  10.000
 Trust-Rad. Augm. Hess. CNVTRAH         .... off
 SOSCF                  CNVSOSCF        .... on
   Start iteration      SOSCFMaxIt      ....   150
   Startup grad/error   SOSCFStart      ....  0.003300
 Level Shifting         CNVShift        .... on
   Level shift para.    LevelShift      ....    0.2500
   Turn off err/grad.   ShiftErr        ....    0.0010
 Zerner damping         CNVZerner       .... off
 Static damping         CNVDamp         .... on
   Fraction old density DampFac         ....    0.7000
   Max. Damping (<1)    DampMax         ....    0.9800
   Min. Damping (>=0)   DampMin         ....    0.0000
   Turn off err/grad.   DampErr         ....    0.1000
 Fernandez-Rico         CNVRico         .... off

SCF Procedure:
 Maximum # iterations   MaxIter         ....   125
 SCF integral mode      SCFMode         .... Conventional
 Integral Buffer length BufferLength    .... 1048576
 Integral index format  IndFormat       ....     0
 Integral value format  ValFormat       ....     0
 Integral Storage       Thresh          ....  2.500e-11 Eh

Convergence Tolerance:
 Convergence Check Mode ConvCheckMode   .... Total+1el-Energy
 Convergence forced     ConvForced      .... 0
 Energy Change          TolE            ....  1.000e-08 Eh
 1-El. energy change                    ....  1.000e-05 Eh
 Orbital Gradient       TolG            ....  1.000e-05
 Orbital Rotation angle TolX            ....  1.000e-05
 DIIS Error             TolErr          ....  5.000e-07


Diagonalization of the overlap matrix:
Smallest eigenvalue                        ... 1.650e-01
Time for diagonalization                   ...    0.000 sec
Threshold for overlap eigenvalues          ... 1.000e-08
Number of eigenvalues below threshold      ... 0
Time for construction of square roots      ...    0.000 sec
Total time needed                          ...    0.000 sec

---------------------
INITIAL GUESS: MOREAD
---------------------
Guess MOs are being read from file: Keto_enol_TS.gbw
Input Geometry matches current geometry (good)
Input basis set matches current basis set (good)
                      ------------------
                      INITIAL GUESS DONE (   0.0 sec)
                      ------------------

 InCore treatment chosen:
   Memory dedicated               ...    1024 MB
   Memory needed                  ...      0 MB
   Number of tiny    integrals    ...       0
   Number of small   integrals    ...       4
   Number of regular integrals    ...     921

--------------
SCF ITERATIONS
--------------
ITER       Energy         Delta-E        Max-DP      RMS-DP      [F,P]     Damp
                      *** Initiating the SOSCF procedure ***
                      *** Re-Reading the Fockian *** 
                      *** Removing any level shift *** 
ITER      Energy       Delta-E        Grad      Rot      Max-DP    RMS-DP
  0    -27.16403835 -27.1640383500  0.000053  0.000053  0.000095  0.000011
  1    -27.16403840  -0.0000000489  0.000019  0.000036  0.000064  0.000008
  2    -27.16403841  -0.0000000146  0.000008  0.000028  0.000048  0.000006
                 **** Energy Check signals convergence ****
              ***Rediagonalizing the Fockian in SOSCF/NRSCF***

               *****************************************************
               *                     SUCCESS                       *
               *           SCF CONVERGED AFTER   3 CYCLES          *
               *****************************************************


----------------
TOTAL SCF ENERGY
----------------

Total Energy       :          -27.16403842 Eh            -739.17106 eV

Components:
Nuclear Repulsion  :           58.09776379 Eh            1580.92053 eV
Electronic Energy  :          -85.26180221 Eh           -2320.09159 eV
One Electron Energy:         -153.29883306 Eh           -4171.47332 eV
Two Electron Energy:           68.03703085 Eh            1851.38173 eV


---------------
SCF CONVERGENCE
---------------

  Last Energy change         ...   -3.1581e-09  Tolerance :   1.0000e-08
  Last MAX-Density change    ...    3.1899e-06  Tolerance :   1.0000e-07
  Last RMS-Density change    ...    5.6279e-07  Tolerance :   5.0000e-09
  Last Orbital Gradient      ...    1.5914e-06  Tolerance :   1.0000e-05
  Last Orbital Rotation      ...    2.0668e-06  Tolerance :   1.0000e-05

             **** THE GBW FILE WAS UPDATED (Keto_enol_TS.gbw) ****
             **** DENSITY Keto_enol_TS.scfp WAS UPDATED ****
             **** ENERGY FILE WAS UPDATED (Keto_enol_TS.en.tmp) ****
             **** THE GBW FILE WAS UPDATED (Keto_enol_TS.gbw) ****
             **** DENSITY Keto_enol_TS.scfp WAS UPDATED ****
----------------
ORBITAL ENERGIES
----------------

  NO   OCC          E(Eh)            E(eV) 
   0   2.0000      -1.519366       -41.3441 
   1   2.0000      -1.218340       -33.1527 
   2   2.0000      -0.999081       -27.1864 
   3   2.0000      -0.763617       -20.7791 
   4   2.0000      -0.643471       -17.5097 
   5   2.0000      -0.603885       -16.4326 
   6   2.0000      -0.555622       -15.1192 
   7   2.0000      -0.509003       -13.8507 
   8   2.0000      -0.492023       -13.3886 
   9   2.0000      -0.480026       -13.0622 
  10   2.0000      -0.476409       -12.9638 
  11   2.0000      -0.351542        -9.5659 
  12   0.0000       0.040748         1.1088 
  13   0.0000       0.108206         2.9444 
  14   0.0000       0.133613         3.6358 
  15   0.0000       0.145037         3.9467 
  16   0.0000       0.156794         4.2666 
  17   0.0000       0.160297         4.3619 
  18   0.0000       0.161774         4.4021 
  19   0.0000       0.198719         5.4074 
  20   0.0000       0.203037         5.5249 
  21   0.0000       0.251102         6.8328 

                    ********************************
                    * MULLIKEN POPULATION ANALYSIS *
                    ********************************

-----------------------
MULLIKEN ATOMIC CHARGES
-----------------------
   0 C :   -0.276887
   1 C :    0.039274
   2 H :    0.125936
   3 H :    0.126013
   4 H :    0.118404
   5 C :   -0.480525
   6 H :    0.191783
   7 H :    0.240279
   8 H :    0.181077
   9 O :   -0.265353
Sum of atomic charges:    0.0000000

--------------------------------
MULLIKEN REDUCED ORBITAL CHARGES
--------------------------------
  0 C s       :     1.505754  s :     1.505754
      pz      :     0.958272  p :     2.771132
      px      :     0.850514
      py      :     0.962347
  1 C s       :     1.318386  s :     1.318386
      pz      :     0.841568  p :     2.642340
      px      :     0.884331
      py      :     0.916441
  2 H s       :     0.874064  s :     0.874064
  3 H s       :     0.873987  s :     0.873987
  4 H s       :     0.881596  s :     0.881596
  5 C s       :     1.498902  s :     1.498902
      pz      :     0.963562  p :     2.981623
      px      :     0.937789
      py      :     1.080273
  6 H s       :     0.808217  s :     0.808217
  7 H s       :     0.759721  s :     0.759721
  8 H s       :     0.818923  s :     0.818923
  9 O s       :     1.763541  s :     1.763541
      pz      :     1.424842  p :     4.501812
      px      :     1.318937
      py      :     1.758034


                     *******************************
                     * LOEWDIN POPULATION ANALYSIS *
                     *******************************

----------------------
LOEWDIN ATOMIC CHARGES
----------------------
   0 C :   -0.069518
   1 C :    0.064973
   2 H :    0.055862
   3 H :    0.055920
   4 H :    0.049448
   5 C :   -0.303921
   6 H :    0.102875
   7 H :    0.195554
   8 H :    0.096197
   9 O :   -0.247388

-------------------------------
LOEWDIN REDUCED ORBITAL CHARGES
-------------------------------
  0 C s       :     1.121726  s :     1.121726
      pz      :     1.016342  p :     2.947792
      px      :     0.912743
      py      :     1.018708
  1 C s       :     1.185931  s :     1.185931
      pz      :     0.877099  p :     2.749096
      px      :     0.942461
      py      :     0.929537
  2 H s       :     0.944138  s :     0.944138
  3 H s       :     0.944080  s :     0.944080
  4 H s       :     0.950552  s :     0.950552
  5 C s       :     1.183246  s :     1.183246
      pz      :     1.018546  p :     3.120676
      px      :     1.002751
      py      :     1.099378
  6 H s       :     0.897125  s :     0.897125
  7 H s       :     0.804446  s :     0.804446
  8 H s       :     0.903803  s :     0.903803
  9 O s       :     1.702554  s :     1.702554
      pz      :     1.436195  p :     4.544833
      px      :     1.347991
      py      :     1.760647


                      *****************************
                      * MAYER POPULATION ANALYSIS *
                      *****************************

  NA   - Mulliken gross atomic population
  ZA   - Total nuclear charge
  QA   - Mulliken gross atomic charge
  VA   - Mayer's total valence
  BVA  - Mayer's bonded valence
  FA   - Mayer's free valence

  ATOM       NA         ZA         QA         VA         BVA        FA
  0 C      6.6112     4.0000    -2.6112     1.8446    11.7418    -9.8972
  1 C      5.9357     4.0000    -1.9357     2.7051    10.4796    -7.7745
  2 H      1.5656     1.0000    -0.5656     0.6801     3.4195    -2.7394
  3 H      1.5656     1.0000    -0.5656     0.6801     3.4193    -2.7392
  4 H      1.5734     1.0000    -0.5734     0.6712     3.4832    -2.8121
  5 C      6.5379     4.0000    -2.5379     1.9833    10.4785    -8.4951
  6 H      1.5390     1.0000    -0.5390     0.7095     3.2262    -2.5167
  7 H      1.3276     1.0000    -0.3276     0.8927     2.5961    -1.7035
  8 H      1.5469     1.0000    -0.5469     0.7009     3.1916    -2.4907
  9 O      7.1886     6.0000    -1.1886     1.3060     4.5379    -3.2319

  Mayer bond orders larger than 0.100000
B(  0-C ,  1-C ) :   2.9381 B(  0-C ,  2-H ) :   2.8821 B(  0-C ,  3-H ) :   2.8822 
B(  0-C ,  4-H ) :   2.8820 B(  1-C ,  2-H ) :   0.1370 B(  1-C ,  3-H ) :   0.1368 
B(  1-C ,  4-H ) :   0.1321 B(  1-C ,  5-C ) :   4.4977 B(  1-C ,  6-H ) :   0.1267 
B(  1-C ,  7-H ) :   0.1869 B(  1-C ,  8-H ) :   0.1143 B(  1-C ,  9-O ) :   2.2100 
B(  2-H ,  3-H ) :   0.1927 B(  2-H ,  4-H ) :   0.1845 B(  3-H ,  4-H ) :   0.1845 
B(  5-C ,  6-H ) :   2.8600 B(  5-C ,  8-H ) :   2.8697 B(  6-H ,  8-H ) :   0.1469 
B(  7-H ,  9-O ) :   2.2545 

-------
TIMINGS
-------

Total SCF time: 0 days 0 hours 0 min 0 sec 

Total time                  ....       0.206 sec
Sum of individual times     ....       0.043 sec  ( 20.9%)

Fock matrix formation       ....       0.006 sec  (  3.1%)
Diagonalization             ....       0.000 sec  (  0.1%)
Density matrix formation    ....       0.000 sec  (  0.0%)
Population analysis         ....       0.035 sec  ( 17.2%)
Initial guess               ....       0.001 sec  (  0.3%)
Orbital Transformation      ....       0.000 sec  (  0.0%)
Orbital Orthonormalization  ....       0.000 sec  (  0.0%)
DIIS solution               ....       0.000 sec  (  0.0%)
SOSCF solution              ....       0.000 sec  (  0.2%)

Maximum memory used throughout the entire SCF-calculation: 222.8 MB

-------------------------   --------------------
FINAL SINGLE POINT ENERGY       -27.164038416679
-------------------------   --------------------

                                *** OPTIMIZATION RUN DONE ***

Storing optimized geometry in Keto_enol_TS.030.xyz ... done
Storing optimized geometry and energy in Keto_enol_TS.xyzall ... done
Storing actual gbw-file in Keto_enol_TS.030.gbw ... done

                            ***************************************
                            *     ORCA property calculations      *
                            ***************************************

                                    ---------------------
                                    Active property flags
                                    ---------------------
   (+) Dipole Moment


------------------------------------------------------------------------------
                       ORCA ELECTRIC PROPERTIES CALCULATION
------------------------------------------------------------------------------

Dipole Moment Calculation                       ... on
Quadrupole Moment Calculation                   ... off
Polarizability Calculation                      ... off
GBWName                                         ... Keto_enol_TS.gbw
Electron density                                ... Keto_enol_TS.scfp
The origin for moment calculation is the CENTER OF MASS  = ( 2.735281,  0.084353  0.146196)

-------------
DIPOLE MOMENT
-------------
                                X             Y             Z
Electronic contribution:      6.32788       4.34829       7.54481
Nuclear contribution   :     -1.77179      -0.76406      -1.32682
                        -----------------------------------------
Total Dipole Moment    :      4.55609       3.58423       6.21799
                        -----------------------------------------
Magnitude (a.u.)       :      8.50106
Magnitude (Debye)      :     21.60798



--------------------
Rotational spectrum 
--------------------
 
Rotational constants in cm-1:     0.332205     0.305866     0.164153 
Rotational constants in MHz :  9959.248290  9169.637300  4921.181822 

 Dipole components along the rotational axes: 
x,y,z [a.u.] :     3.685671     7.660542     0.000498 
x,y,z [Debye]:     9.368231    19.471550     0.001266 

 
                   **** RELAXED SURFACE SCAN DONE ***

                    SUMMARY OF THE CALCULATED SURFACE

----------------------------
RELAXED SURFACE SCAN RESULTS
----------------------------

Column   1: NONAME

The Calculated Surface using the 'Actual Energy'
   2.54400000 -27.27367028
   2.48041379 -27.27321271
   2.41682759 -27.27232435
   2.35324138 -27.27100703
   2.28965517 -27.26927882
   2.22606897 -27.26718097
   2.16248276 -27.26477705
   2.09889655 -27.26213922
   2.03531034 -27.25931710
   1.97172414 -27.25629329
   1.90813793 -27.25293781
   1.84455172 -27.24898306
   1.78096552 -27.24404139
   1.71737931 -27.23767858
   1.65379310 -27.22953586
   1.59020690 -27.21947046
   1.52662069 -27.20766836
   1.46303448 -27.19469344
   1.39944828 -27.18146057
   1.33586207 -27.16917729
   1.27227586 -27.15929791
   1.20868966 -27.15306414
   1.14510345 -27.22683536
   1.08151724 -27.23928254
   1.01793103 -27.24836444
   0.95434483 -27.25233603
   0.89075862 -27.24872640
   0.82717241 -27.23481868
   0.76358621 -27.20766175
   0.70000000 -27.16403842

The Calculated Surface using the SCF energy
   2.54400000 -27.27367028
   2.48041379 -27.27321271
   2.41682759 -27.27232435
   2.35324138 -27.27100703
   2.28965517 -27.26927882
   2.22606897 -27.26718097
   2.16248276 -27.26477705
   2.09889655 -27.26213922
   2.03531034 -27.25931710
   1.97172414 -27.25629329
   1.90813793 -27.25293781
   1.84455172 -27.24898306
   1.78096552 -27.24404139
   1.71737931 -27.23767858
   1.65379310 -27.22953586
   1.59020690 -27.21947046
   1.52662069 -27.20766836
   1.46303448 -27.19469344
   1.39944828 -27.18146057
   1.33586207 -27.16917729
   1.27227586 -27.15929791
   1.20868966 -27.15306414
   1.14510345 -27.22683536
   1.08151724 -27.23928254
   1.01793103 -27.24836444
   0.95434483 -27.25233603
   0.89075862 -27.24872640
   0.82717241 -27.23481868
   0.76358621 -27.20766175
   0.70000000 -27.16403842


Timings for individual modules:

Sum of individual times         ...       56.276 sec (=   0.938 min)
STO integral calculation        ...        5.995 sec (=   0.100 min)  10.7 %
SCF iterations                  ...       40.966 sec (=   0.683 min)  72.8 %
SCF Gradient evaluation         ...        3.668 sec (=   0.061 min)   6.5 %
Geometry relaxation             ...        5.647 sec (=   0.094 min)  10.0 %
                             ****ORCA TERMINATED NORMALLY****
TOTAL RUN TIME: 0 days 0 hours 1 minutes 10 seconds 465 msec
