10
Coordinates from ORCA-job Keto_enol_TS Relaxed Surface Scan Step 1
  C       0.019560      0.002294     -0.004354
  C       1.523380      0.000806     -0.002031
  H      -0.360936      1.032063      0.004270
  H      -0.409077     -0.519794      0.860849
  H      -0.361194     -0.485002     -0.911437
  C       2.183192      0.697242     -1.160033
  H       1.890636      0.231160     -2.109535
  H       3.276879      0.657695     -1.085093
  H       1.883178      1.752142     -1.199442
  O       2.175766     -0.526716      0.878743
>
10
Coordinates from ORCA-job Keto_enol_TS Relaxed Surface Scan Step 2
  C      -0.004633     -0.001730      0.002878
  C       1.497239      0.006945     -0.008466
  H      -0.391388      1.025700      0.005782
  H      -0.421572     -0.519126      0.876533
  H      -0.389648     -0.499387     -0.896711
  C       2.158952      0.690082     -1.170758
  H       1.877359      0.217687     -2.119753
  H       3.247345      0.627850     -1.058854
  H       1.872562      1.747547     -1.223512
  O       2.169524     -0.507316      0.865244
>
10
Coordinates from ORCA-job Keto_enol_TS Relaxed Surface Scan Step 3
  C      -0.004495     -0.001964      0.002799
  C       1.495794      0.004376     -0.010103
  H      -0.389080      1.026275      0.004970
  H      -0.421472     -0.517998      0.877194
  H      -0.390565     -0.499558     -0.896363
  C       2.174453      0.682639     -1.163108
  H       1.910812      0.214704     -2.118750
  H       3.254149      0.591076     -1.004130
  H       1.908164      1.744481     -1.220607
  O       2.175912     -0.506015      0.859965
>
10
Coordinates from ORCA-job Keto_enol_TS Relaxed Surface Scan Step 4
  C      -0.004294     -0.001654      0.002855
  C       1.494536      0.006858     -0.008669
  H      -0.389791      1.026238      0.005734
  H      -0.421485     -0.519368      0.876119
  H      -0.388326     -0.498460     -0.897615
  C       2.190137      0.680187     -1.152265
  H       1.945275      0.215941     -2.114013
  H       3.258611      0.560107     -0.946059
  H       1.943505      1.745916     -1.214239
  O       2.181951     -0.502919      0.856307
>
10
Coordinates from ORCA-job Keto_enol_TS Relaxed Surface Scan Step 5
  C      -0.004078     -0.001794      0.002656
  C       1.493330      0.004564     -0.010027
  H      -0.387663      1.026816      0.004998
  H      -0.421462     -0.518396      0.876456
  H      -0.388997     -0.498436     -0.897522
  C       2.205706      0.672943     -1.144235
  H       1.979363      0.212175     -2.111502
  H       3.260506      0.524121     -0.891450
  H       1.979151      1.742298     -1.209953
  O       2.187690     -0.502086      0.851675
>
10
Coordinates from ORCA-job Keto_enol_TS Relaxed Surface Scan Step 6
  C      -0.003884     -0.001503      0.002714
  C       1.492151      0.006543     -0.008858
  H      -0.388171      1.026842      0.005719
  H      -0.421433     -0.519512      0.875579
  H      -0.387188     -0.497442     -0.898543
  C       2.221162      0.669974     -1.133664
  H       2.014125      0.211809     -2.105820
  H       3.259897      0.493577     -0.834281
  H       2.013902      1.742413     -1.203011
  O       2.193185     -0.499537      0.848346
>
10
Coordinates from ORCA-job Keto_enol_TS Relaxed Surface Scan Step 7
  C      -0.003725     -0.001640      0.002539
  C       1.490964      0.004793     -0.009886
  H      -0.386556      1.027253      0.005069
  H      -0.421411     -0.518771      0.875841
  H      -0.387652     -0.497515     -0.898490
  C       2.236553      0.663067     -1.125380
  H       2.048352      0.207231     -2.101797
  H       3.256942      0.458933     -0.780276
  H       2.048965      1.738337     -1.197751
  O       2.198503     -0.498568      0.844294
>
10
Coordinates from ORCA-job Keto_enol_TS Relaxed Surface Scan Step 8
  C      -0.003621     -0.001429      0.002592
  C       1.489724      0.006186     -0.009068
  H      -0.386880      1.027305      0.005621
  H      -0.421400     -0.519593      0.875223
  H      -0.386364     -0.496758     -0.899246
  C       2.251970      0.659441     -1.115084
  H       2.083169      0.205328     -2.095203
  H       3.251882      0.428670     -0.724497
  H       2.083305      1.737072     -1.190183
  O       2.203723     -0.496307      0.841117
>
10
Coordinates from ORCA-job Keto_enol_TS Relaxed Surface Scan Step 9
  C      -0.003585     -0.001548      0.002477
  C       1.488395      0.005111     -0.009731
  H      -0.385867      1.027559      0.005147
  H      -0.421416     -0.519161      0.875398
  H      -0.386604     -0.496852     -0.899263
  C       2.267539      0.652976     -1.106319
  H       2.117539      0.200335     -2.089539
  H       3.245027      0.395482     -0.671271
  H       2.118138      1.732722     -1.183629
  O       2.208936     -0.494986      0.837394
>
10
Coordinates from ORCA-job Keto_enol_TS Relaxed Surface Scan Step 10
  C      -0.003614     -0.001427      0.002525
  C       1.486955      0.005928     -0.009315
  H      -0.386020      1.027640      0.005519
  H      -0.421446     -0.519705      0.875043
  H      -0.385856     -0.496330     -0.899776
  C       2.283409      0.648530     -1.096130
  H       2.152497      0.197010     -2.081973
  H       3.236735      0.365199     -0.617090
  H       2.152653      1.729999     -1.175233
  O       2.214224     -0.492882      0.834070
>
10
Coordinates from ORCA-job Keto_enol_TS Relaxed Surface Scan Step 11
  C      -0.003692     -0.001505      0.002467
  C       1.485402      0.005440     -0.009721
  H      -0.385481      1.027805      0.005258
  H      -0.421484     -0.519556      0.875133
  H      -0.385920     -0.496349     -0.899884
  C       2.299715      0.642343     -1.086632
  H       2.187333      0.191714     -2.074564
  H       3.227362      0.333236     -0.564513
  H       2.187743      1.725271     -1.167109
  O       2.219644     -0.491201      0.830406
>
10
Coordinates from ORCA-job Keto_enol_TS Relaxed Surface Scan Step 12
  C      -0.003788     -0.001438      0.002492
  C       1.483759      0.005885     -0.009633
  H      -0.385465      1.027928      0.005481
  H      -0.421511     -0.519909      0.874938
  H      -0.385496     -0.495965     -0.900273
  C       2.316554      0.637053     -1.076159
  H       2.222691      0.187094     -2.065747
  H       3.217222      0.302767     -0.511419
  H       2.222825      1.721108     -1.157609
  O       2.225211     -0.489208      0.826886
>
10
Coordinates from ORCA-job Keto_enol_TS Relaxed Surface Scan Step 13
  C      -0.003859     -0.001469      0.002435
  C       1.482066      0.005734     -0.009954
  H      -0.385069      1.028092      0.005307
  H      -0.421517     -0.519904      0.874936
  H      -0.385371     -0.495878     -0.900501
  C       2.333953      0.630770     -1.065740
  H       2.258028      0.181321     -2.056543
  H       3.206562      0.271338     -0.458925
  H       2.258281      1.715685     -1.147794
  O       2.230894     -0.487398      0.823350
>
10
Coordinates from ORCA-job Keto_enol_TS Relaxed Surface Scan Step 14
  C      -0.003861     -0.001392      0.002401
  C       1.480380      0.006061     -0.010049
  H      -0.384809      1.028292      0.005413
  H      -0.421490     -0.520165      0.874720
  H      -0.384906     -0.495464     -0.900947
  C       2.351845      0.624781     -1.054559
  H       2.293480      0.175683     -2.046196
  H       3.195559      0.240434     -0.405717
  H       2.293532      1.710272     -1.136924
  O       2.236598     -0.485704      0.820052
>
10
Coordinates from ORCA-job Keto_enol_TS Relaxed Surface Scan Step 15
  C      -0.003752     -0.001383      0.002269
  C       1.478756      0.006022     -0.010426
  H      -0.384194      1.028523      0.005117
  H      -0.421431     -0.520141      0.874583
  H      -0.384479     -0.495286     -0.901345
  C       2.370072      0.618124     -1.043183
  H       2.328349      0.169394     -2.035367
  H       3.184360      0.208434     -0.352180
  H       2.328528      1.703971     -1.125506
  O       2.242164     -0.484207      0.817241
>
10
Coordinates from ORCA-job Keto_enol_TS Relaxed Surface Scan Step 16
  C      -0.003674     -0.001389      0.002240
  C       1.477226      0.006647     -0.011479
  H      -0.384042      1.028602      0.005144
  H      -0.420922     -0.520410      0.874621
  H      -0.384301     -0.495060     -0.901607
  C       2.388906      0.611828     -1.031238
  H       2.362883      0.163754     -2.023909
  H       3.173183      0.175753     -0.296835
  H       2.363118      1.697884     -1.113105
  O       2.246576     -0.482864      0.815092
>
10
Coordinates from ORCA-job Keto_enol_TS Relaxed Surface Scan Step 17
  C      -0.002945     -0.001000      0.001829
  C       1.476209      0.006553     -0.010653
  H      -0.382364      1.029388      0.004849
  H      -0.421516     -0.520476      0.873330
  H      -0.382393     -0.493646     -0.903128
  C       2.407695      0.604570     -1.017307
  H       2.396471      0.156968     -2.010226
  H       3.162750      0.141611     -0.237615
  H       2.396291      1.690653     -1.099088
  O       2.250999     -0.483805      0.815065
>
10
Coordinates from ORCA-job Keto_enol_TS Relaxed Surface Scan Step 18
  C      -0.002213     -0.000807      0.001565
  C       1.475336      0.007149     -0.011673
  H      -0.381169      1.029820      0.004679
  H      -0.421054     -0.520609      0.872759
  H      -0.381272     -0.492809     -0.903982
  C       2.424429      0.597527     -1.005676
  H       2.425367      0.150179     -1.998736
  H       3.152775      0.106163     -0.177074
  H       2.424773      1.683567     -1.088336
  O       2.254359     -0.484957      0.814842
>
10
Coordinates from ORCA-job Keto_enol_TS Relaxed Surface Scan Step 19
  C      -0.000988     -0.000635      0.000875
  C       1.475013      0.007126     -0.012380
  H      -0.378970      1.030435      0.003164
  H      -0.421074     -0.520043      0.871737
  H      -0.379266     -0.492274     -0.905292
  C       2.439729      0.590265     -0.993280
  H       2.450169      0.144575     -1.987248
  H       3.144964      0.065241     -0.110063
  H       2.450184      1.676425     -1.076348
  O       2.255632     -0.487057      0.818651
>
10
Coordinates from ORCA-job Keto_enol_TS Relaxed Surface Scan Step 20
  C       0.001313      0.000005     -0.000046
  C       1.475999      0.008294     -0.013976
  H      -0.375968      1.031458      0.002341
  H      -0.420180     -0.519965      0.869851
  H      -0.376142     -0.490251     -0.907448
  C       2.450839      0.585187     -0.981837
  H       2.467266      0.142612     -1.977631
  H       3.142212      0.018241     -0.030621
  H       2.467304      1.671658     -1.066026
  O       2.253070     -0.492092      0.825833
>
10
Coordinates from ORCA-job Keto_enol_TS Relaxed Surface Scan Step 21
  C       0.004766      0.000878     -0.001470
  C       1.478535      0.009737     -0.016291
  H      -0.371455      1.032907      0.000706
  H      -0.419282     -0.519526      0.867018
  H      -0.371613     -0.487511     -0.910539
  C       2.454721      0.581041     -0.972347
  H       2.473893      0.141831     -1.970082
  H       3.145753     -0.040781      0.068371
  H       2.473932      1.667817     -1.057968
  O       2.244505     -0.501381      0.839270
>
10
Coordinates from ORCA-job Keto_enol_TS Relaxed Surface Scan Step 22
  C       0.006678      0.001101     -0.001858
  C       1.479932      0.012120     -0.020209
  H      -0.369359      1.033431      0.000741
  H      -0.418901     -0.520299      0.865403
  H      -0.369507     -0.485141     -0.912424
  C       2.449975      0.577663     -0.963381
  H       2.477301      0.140738     -1.961517
  H       3.145196     -0.107972      0.180164
  H       2.477502      1.663980     -1.047750
  O       2.229225     -0.513470      0.856550
>
10
Coordinates from ORCA-job Keto_enol_TS Relaxed Surface Scan Step 23
  C       0.054445     -0.088276     -0.080547
  C       1.531180      0.123628     -0.105125
  H      -0.468922      0.877025     -0.070986
  H      -0.281698     -0.656256      0.797839
  H      -0.271109     -0.635501     -0.974758
  C       2.191978      0.647870     -1.146753
  H       1.684673      0.946068     -2.057364
  H       3.249283     -0.049579      0.921697
  H       3.267190      0.805349     -1.155584
  O       2.133447     -0.271419      1.051926
>
10
Coordinates from ORCA-job Keto_enol_TS Relaxed Surface Scan Step 24
  C       0.005585      0.026892      0.005693
  C       1.496653      0.050675      0.002259
  H      -0.400858      0.816293      0.652427
  H      -0.374789     -0.934447      0.376828
  H      -0.396014      0.179516     -1.004133
  C       2.246526      0.237343     -1.092265
  H       1.807319      0.386940     -2.072543
  H       3.088020     -0.106891      1.153264
  H       3.332857      0.252780     -1.080178
  O       2.011654     -0.141398      1.252882
>
10
Coordinates from ORCA-job Keto_enol_TS Relaxed Surface Scan Step 25
  C       0.007425      0.001434      0.002348
  C       1.498414     -0.001537     -0.002858
  H      -0.386516      1.026850      0.003541
  H      -0.386871     -0.505740      0.893386
  H      -0.393286     -0.511507     -0.881214
  C       2.249347     -0.555848     -0.963950
  H       1.809543     -1.051282     -1.822731
  H       3.026263      0.591294      1.022854
  H       3.335607     -0.551535     -0.956752
  O       2.011762      0.632067      1.095724
>
10
Coordinates from ORCA-job Keto_enol_TS Relaxed Surface Scan Step 26
  C       0.007018      0.001411      0.002436
  C       1.497714     -0.001796     -0.003203
  H      -0.386764      1.026902      0.003887
  H      -0.387007     -0.505558      0.893726
  H      -0.394174     -0.511432     -0.880947
  C       2.249421     -0.555576     -0.963850
  H       1.809051     -1.050716     -1.822600
  H       2.963171      0.601363      1.041643
  H       3.335500     -0.551814     -0.957543
  O       2.010977      0.632750      1.097455
>
10
Coordinates from ORCA-job Keto_enol_TS Relaxed Surface Scan Step 27
  C       0.006786      0.001410      0.002447
  C       1.497120     -0.001925     -0.003364
  H      -0.386801      1.026983      0.004007
  H      -0.387076     -0.505343      0.893941
  H      -0.394659     -0.511443     -0.880804
  C       2.250069     -0.555139     -0.963175
  H       1.810067     -1.050317     -1.822154
  H       2.900435      0.612022      1.060713
  H       3.335992     -0.551229     -0.956570
  O       2.010779      0.633707      1.099344
>
10
Coordinates from ORCA-job Keto_enol_TS Relaxed Surface Scan Step 28
  C       0.006572      0.001437      0.002491
  C       1.496509     -0.002056     -0.003580
  H      -0.386791      1.027102      0.004150
  H      -0.387080     -0.505068      0.894226
  H      -0.395127     -0.511455     -0.880606
  C       2.251049     -0.554627     -0.962295
  H       1.812053     -1.050036     -1.821695
  H       2.837884      0.622866      1.079725
  H       3.336832     -0.550079     -0.954577
  O       2.011073      0.634712      1.101109
>
10
Coordinates from ORCA-job Keto_enol_TS Relaxed Surface Scan Step 29
  C       0.006402      0.001458      0.002526
  C       1.495924     -0.002138     -0.003719
  H      -0.386771      1.027198      0.004251
  H      -0.387066     -0.504811      0.894477
  H      -0.395436     -0.511502     -0.880452
  C       2.252434     -0.553952     -0.961074
  H       1.815020     -1.049741     -1.821086
  H       2.775299      0.633780      1.098709
  H       3.338083     -0.548359     -0.951545
  O       2.011728      0.635829      1.102982
>
10
Coordinates from ORCA-job Keto_enol_TS Relaxed Surface Scan Step 30
  C       0.006264      0.001474      0.002550
  C       1.495366     -0.002168     -0.003772
  H      -0.386753      1.027274      0.004314
  H      -0.387050     -0.504574      0.894696
  H      -0.395621     -0.511574     -0.880335
  C       2.254112     -0.553144     -0.959572
  H       1.818692     -1.049418     -1.820331
  H       2.712630      0.644534      1.117330
  H       3.339633     -0.546226     -0.947752
  O       2.012779      0.637052      1.104975
