
                                 *****************
                                 * O   R   C   A *
                                 *****************

                                            #,                                       
                                            ###                                      
                                            ####                                     
                                            #####                                    
                                            ######                                   
                                           ########,                                 
                                     ,,################,,,,,                         
                               ,,#################################,,                 
                          ,,##########################################,,             
                       ,#########################################, ''#####,          
                    ,#############################################,,   '####,        
                  ,##################################################,,,,####,       
                ,###########''''           ''''###############################       
              ,#####''   ,,,,##########,,,,          '''####'''          '####       
            ,##' ,,,,###########################,,,                        '##       
           ' ,,###''''                  '''############,,,                           
         ,,##''                                '''############,,,,        ,,,,,,###''
      ,#''                                            '''#######################'''  
     '                                                          ''''####''''         
             ,#######,   #######,   ,#######,      ##                                
            ,#'     '#,  ##    ##  ,#'     '#,    #''#        ######   ,####,        
            ##       ##  ##   ,#'  ##            #'  '#       #        #'  '#        
            ##       ##  #######   ##           ,######,      #####,   #    #        
            '#,     ,#'  ##    ##  '#,     ,#' ,#      #,         ##   #,  ,#        
             '#######'   ##     ##  '#######'  #'      '#     #####' # '####'        



                  #######################################################
                  #                        -***-                        #
                  #          Department of theory and spectroscopy      #
                  #    Directorship and core code : Frank Neese         #
                  #        Max Planck Institute fuer Kohlenforschung    #
                  #                Kaiser Wilhelm Platz 1               #
                  #                 D-45470 Muelheim/Ruhr               #
                  #                      Germany                        #
                  #                                                     #
                  #                  All rights reserved                #
                  #                        -***-                        #
                  #######################################################


                         Program Version 5.0.4 -  RELEASE  -


 With contributions from (in alphabetic order):
   Daniel Aravena         : Magnetic Suceptibility
   Michael Atanasov       : Ab Initio Ligand Field Theory (pilot matlab implementation)
   Alexander A. Auer      : GIAO ZORA, VPT2 properties, NMR spectrum
   Ute Becker             : Parallelization
   Giovanni Bistoni       : ED, misc. LED, open-shell LED, HFLD
   Martin Brehm           : Molecular dynamics
   Dmytro Bykov           : SCF Hessian
   Vijay G. Chilkuri      : MRCI spin determinant printing, contributions to CSF-ICE
   Dipayan Datta          : RHF DLPNO-CCSD density
   Achintya Kumar Dutta   : EOM-CC, STEOM-CC
   Dmitry Ganyushin       : Spin-Orbit,Spin-Spin,Magnetic field MRCI
   Miquel Garcia          : C-PCM and meta-GGA Hessian, CC/C-PCM, Gaussian charge scheme
   Yang Guo               : DLPNO-NEVPT2, F12-NEVPT2, CIM, IAO-localization
   Andreas Hansen         : Spin unrestricted coupled pair/coupled cluster methods
   Benjamin Helmich-Paris : MC-RPA, TRAH-SCF, COSX integrals
   Lee Huntington         : MR-EOM, pCC
   Robert Izsak           : Overlap fitted RIJCOSX, COSX-SCS-MP3, EOM
   Marcus Kettner         : VPT2
   Christian Kollmar      : KDIIS, OOCD, Brueckner-CCSD(T), CCSD density, CASPT2, CASPT2-K
   Simone Kossmann        : Meta GGA functionals, TD-DFT gradient, OOMP2, MP2 Hessian
   Martin Krupicka        : Initial AUTO-CI
   Lucas Lang             : DCDCAS
   Marvin Lechner         : AUTO-CI (C++ implementation), FIC-MRCC
   Dagmar Lenk            : GEPOL surface, SMD
   Dimitrios Liakos       : Extrapolation schemes; Compound Job, initial MDCI parallelization
   Dimitrios Manganas     : Further ROCIS development; embedding schemes
   Dimitrios Pantazis     : SARC Basis sets
   Anastasios Papadopoulos: AUTO-CI, single reference methods and gradients
   Taras Petrenko         : DFT Hessian,TD-DFT gradient, ASA, ECA, R-Raman, ABS, FL, XAS/XES, NRVS
   Peter Pinski           : DLPNO-MP2, DLPNO-MP2 Gradient
   Christoph Reimann      : Effective Core Potentials
   Marius Retegan         : Local ZFS, SOC
   Christoph Riplinger    : Optimizer, TS searches, QM/MM, DLPNO-CCSD(T), (RO)-DLPNO pert. Triples
   Tobias Risthaus        : Range-separated hybrids, TD-DFT gradient, RPA, STAB
   Michael Roemelt        : Original ROCIS implementation
   Masaaki Saitow         : Open-shell DLPNO-CCSD energy and density
   Barbara Sandhoefer     : DKH picture change effects
   Avijit Sen             : IP-ROCIS
   Kantharuban Sivalingam : CASSCF convergence, NEVPT2, FIC-MRCI
   Bernardo de Souza      : ESD, SOC TD-DFT
   Georgi Stoychev        : AutoAux, RI-MP2 NMR, DLPNO-MP2 response
   Willem Van den Heuvel  : Paramagnetic NMR
   Boris Wezisla          : Elementary symmetry handling
   Frank Wennmohs         : Technical directorship


 We gratefully acknowledge several colleagues who have allowed us to
 interface, adapt or use parts of their codes:
   Stefan Grimme, W. Hujo, H. Kruse, P. Pracht,  : VdW corrections, initial TS optimization,
                  C. Bannwarth, S. Ehlert          DFT functionals, gCP, sTDA/sTD-DF
   Ed Valeev, F. Pavosevic, A. Kumar             : LibInt (2-el integral package), F12 methods
   Garnet Chan, S. Sharma, J. Yang, R. Olivares  : DMRG
   Ulf Ekstrom                                   : XCFun DFT Library
   Mihaly Kallay                                 : mrcc  (arbitrary order and MRCC methods)
   Jiri Pittner, Ondrej Demel                    : Mk-CCSD
   Frank Weinhold                                : gennbo (NPA and NBO analysis)
   Christopher J. Cramer and Donald G. Truhlar   : smd solvation model
   Lars Goerigk                                  : TD-DFT with DH, B97 family of functionals
   V. Asgeirsson, H. Jonsson                     : NEB implementation
   FAccTs GmbH                                   : IRC, NEB, NEB-TS, DLPNO-Multilevel, CI-OPT
                                                   MM, QMMM, 2- and 3-layer-ONIOM, Crystal-QMMM,
                                                   LR-CPCM, SF, NACMEs, symmetry and pop. for TD-DFT,
                                                   nearIR, NL-DFT gradient (VV10), updates on ESD,
                                                   ML-optimized integration grids
   S Lehtola, MJT Oliveira, MAL Marques          : LibXC Library
   Liviu Ungur et al                             : ANISO software


 Your calculation uses the libint2 library for the computation of 2-el integrals
 For citations please refer to: http://libint.valeyev.net

 Your ORCA version has been built with support for libXC version: 5.1.0
 For citations please refer to: https://tddft.org/programs/libxc/

 This ORCA versions uses:
   CBLAS   interface :  Fast vector & matrix operations
   LAPACKE interface :  Fast linear algebra routines
   SCALAPACK package :  Parallel linear algebra routines
   Shared memory     :  Shared parallel matrices
   BLAS/LAPACK       :  OpenBLAS 0.3.15  USE64BITINT DYNAMIC_ARCH NO_AFFINITY Sandybridge SINGLE_THREADED
        Core in use  :  Sandybridge
   Copyright (c) 2011-2014, The OpenBLAS Project


================================================================================

----- Orbital basis set information -----
Your calculation utilizes the basis: def2-SVP
   F. Weigend and R. Ahlrichs, Phys. Chem. Chem. Phys. 7, 3297 (2005).

================================================================================
                                        WARNINGS
                       Please study these warnings very carefully!
================================================================================


WARNING: your system is open-shell and RHF/RKS was chosen
  ===> : WILL SWITCH to UHF/UKS


INFO   : the flag for use of the SHARK integral package has been found!

================================================================================
                                       INPUT FILE
================================================================================
NAME = Cr_O6.inp
|  1> !hf sp def2-svp tightscf
|  2> !PAL4
|  3> !ALLPOP
|  4> !LARGEPRINT
|  5> 
|  6> 
|  7> *xyz -9 6 
|  8>     Cr       -0.00000        0.00000        0.00000
|  9>     O       -2.15878        0.00000       -0.00000
| 10>     O        2.15878        0.00000       -0.00000
| 11>     O        0.00000       -2.15878       -0.00000
| 12>     O        0.00000        2.15878       -0.00000
| 13>     O        0.00000       -0.00000        2.15878
| 14>     O        0.00000       -0.00000       -2.15878
| 15> *
| 16> #%pointcharges "PointCharges.pc"
| 17> 
| 18> 
| 19> 
| 20> 
| 21>                          ****END OF INPUT****
================================================================================

                       ****************************
                       * Single Point Calculation *
                       ****************************

---------------------------------
CARTESIAN COORDINATES (ANGSTROEM)
---------------------------------
  Cr    -0.000000    0.000000    0.000000
  O     -2.158780    0.000000   -0.000000
  O      2.158780    0.000000   -0.000000
  O      0.000000   -2.158780   -0.000000
  O      0.000000    2.158780   -0.000000
  O      0.000000   -0.000000    2.158780
  O      0.000000   -0.000000   -2.158780

----------------------------
CARTESIAN COORDINATES (A.U.)
----------------------------
  NO LB      ZA    FRAG     MASS         X           Y           Z
   0 Cr   24.0000    0    52.000   -0.000000    0.000000    0.000000
   1 O     8.0000    0    15.999   -4.079503    0.000000   -0.000000
   2 O     8.0000    0    15.999    4.079503    0.000000   -0.000000
   3 O     8.0000    0    15.999    0.000000   -4.079503   -0.000000
   4 O     8.0000    0    15.999    0.000000    4.079503   -0.000000
   5 O     8.0000    0    15.999    0.000000   -0.000000    4.079503
   6 O     8.0000    0    15.999    0.000000   -0.000000   -4.079503

--------------------------------
INTERNAL COORDINATES (ANGSTROEM)
--------------------------------
 Cr     0   0   0     0.000000000000     0.00000000     0.00000000
 O      1   0   0     2.158780000000     0.00000000     0.00000000
 O      1   2   0     2.158780000000   180.00000000     0.00000000
 O      1   2   3     2.158780000000    90.00000000     0.00000000
 O      1   2   4     2.158780000000    90.00000000   180.00000000
 O      1   2   4     2.158780000000    90.00000000   270.00000000
 O      1   2   4     2.158780000000    90.00000000    90.00000000

---------------------------
INTERNAL COORDINATES (A.U.)
---------------------------
 Cr     0   0   0     0.000000000000     0.00000000     0.00000000
 O      1   0   0     4.079502983387     0.00000000     0.00000000
 O      1   2   0     4.079502983387   180.00000000     0.00000000
 O      1   2   3     4.079502983387    90.00000000     0.00000000
 O      1   2   4     4.079502983387    90.00000000   180.00000000
 O      1   2   4     4.079502983387    90.00000000   270.00000000
 O      1   2   4     4.079502983387    90.00000000    90.00000000

---------------------
BASIS SET INFORMATION
---------------------
There are 2 groups of distinct atoms

 Group   1 Type Cr  : 14s9p5d1f contracted to 5s3p2d1f pattern {63311/531/41/1}
 Group   2 Type O   : 7s4p1d contracted to 3s2p1d pattern {511/31/1}

Atom   0Cr   basis set group =>   1
Atom   1O    basis set group =>   2
Atom   2O    basis set group =>   2
Atom   3O    basis set group =>   2
Atom   4O    basis set group =>   2
Atom   5O    basis set group =>   2
Atom   6O    basis set group =>   2

-------------------------
BASIS SET IN INPUT FORMAT
-------------------------

 # Basis set for element : O 
 NewGTO O 
 S 5 
   1    2266.1767785000     -0.0053893504
   2     340.8701019100     -0.0402347214
   3      77.3631351670     -0.1800818421
   4      21.4796449400     -0.4682885766
   5       6.6589433124     -0.4469261716
 S 1 
   1       0.8097597567      1.0000000000
 S 1 
   1       0.2553077223      1.0000000000
 P 3 
   1      17.7215043170      0.0626302488
   2       3.8635505440      0.3333113849
   3       1.0480920883      0.7414863830
 P 1 
   1       0.2764154441      1.0000000000
 D 1 
   1       1.2000000000      1.0000000000
  end;

 # Basis set for element : Cr
 NewGTO Cr
 S 6 
   1   51528.0863490000      0.0017695546
   2    7737.2103487000      0.0135564363
   3    1760.3748470000      0.0671626458
   4     496.8770654400      0.2329590592
   5     161.4652059800      0.4704057698
   6      55.4663522680      0.3573307261
 S 3 
   1     107.5473299900     -0.1060525545
   2      12.4086718970      0.6254398148
   3       5.0423628826      0.4487882079
 S 3 
   1       8.5461640165     -0.2181901209
   2       1.3900441221      0.7042252567
   3       0.5606660288      0.4248855541
 S 1 
   1       0.0714837060      1.0000000000
 S 1 
   1       0.0282506876      1.0000000000
 P 5 
   1     640.4853609600      0.0093555064
   2     150.6971119400      0.0689933385
   3      47.5037552960      0.2634118959
   4      16.9341201650      0.5103450165
   5       6.2409680590      0.3319551295
 P 3 
   1       3.0885463206      0.3291768267
   2       1.1791047769      0.5549138519
   3       0.4336977443      0.2381841286
 D 4 
   1      27.5594794260      0.0369501403
   2       7.4687020327      0.1882151978
   3       2.4345903574      0.4464124424
   4       0.7824475481      0.5681617303
 D 1 
   1       0.2199577431      1.0000000000
 P 1 
   1       0.1206750000      1.0000000000
 F 1 
   1       1.1470000000      1.0000000000
  end;



           ************************************************************
           *        Program running with 4 parallel MPI-processes     *
           *              working on a common directory               *
           ************************************************************
------------------------------------------------------------------------------
                           ORCA GTO INTEGRAL CALCULATION
------------------------------------------------------------------------------
------------------------------------------------------------------------------
                   ___                                                        
                  /   \      - P O W E R E D   B Y -                         
                 /     \                                                     
                 |  |  |   _    _      __       _____    __    __             
                 |  |  |  | |  | |    /  \     |  _  \  |  |  /  |          
                  \  \/   | |  | |   /    \    | | | |  |  | /  /          
                 / \  \   | |__| |  /  /\  \   | |_| |  |  |/  /          
                |  |  |   |  __  | /  /__\  \  |    /   |      \           
                |  |  |   | |  | | |   __   |  |    \   |  |\   \          
                \     /   | |  | | |  |  |  |  | |\  \  |  | \   \       
                 \___/    |_|  |_| |__|  |__|  |_| \__\ |__|  \__/        
                                                                              
                      - O R C A' S   B I G   F R I E N D -                    
                                      &                                       
                       - I N T E G R A L  F E E D E R -                       
                                                                              
 v1 FN, 2020, v2 2021                                                         
------------------------------------------------------------------------------


Reading SHARK input file Cr_O6.SHARKINP.tmp ... SHARK General Contraction Test:  Segmented basis detected
   -> Pre-screening matrix *NOT* found on disk - recalculating with NShells=47
   -> Leaving CheckPreScreeningMatrix
ok
----------------------
SHARK INTEGRAL PACKAGE
----------------------

Number of atoms                             ...      7
Number of basis functions                   ...    115
Number of shells                            ...     47
Maximum angular momentum                    ...      3
Integral batch strategy                     ... SHARK/LIBINT Hybrid
RI-J (if used) integral strategy            ... SPLIT-RIJ (Revised 2003 algorithm where possible)
Printlevel                                  ...      2
Contraction scheme used                     ... SEGMENTED contraction
Coulomb Range Separation                    ... NOT USED
Exchange Range Separation                   ... NOT USED
Finite Nucleus Model                        ... NOT USED
Auxiliary Coulomb fitting basis             ... NOT available
Auxiliary J/K fitting basis                 ... NOT available
Auxiliary Correlation fitting basis         ... NOT available
Auxiliary 'external' fitting basis          ... NOT available
Integral threshold                          ...     2.500000e-11
Primitive cut-off                           ...     2.500000e-12
Primitive pair pre-selection threshold      ...     2.500000e-12

Calculating pre-screening integrals         ... done (  0.0 sec) Dimension = 47
Organizing shell pair data                  ... done (  0.0 sec)
Shell pair information
Total number of shell pairs                 ...      1128
Shell pairs after pre-screening             ...      1002
Total number of primitive shell pairs       ...      5269
Primitive shell pairs kept                  ...      3313
          la=0 lb=0:    240 shell pairs
          la=1 lb=0:    303 shell pairs
          la=1 lb=1:    117 shell pairs
          la=2 lb=0:    148 shell pairs
          la=2 lb=1:    114 shell pairs
          la=2 lb=2:     33 shell pairs
          la=3 lb=0:     23 shell pairs
          la=3 lb=1:     15 shell pairs
          la=3 lb=2:      8 shell pairs
          la=3 lb=3:      1 shell pairs

Calculating one electron integrals          ... done (  0.0 sec)
Calculating Nuclear repulsion               ... done (  0.0 sec) ENN=    439.038288547704 Eh

SHARK setup successfully completed in   0.2 seconds

Maximum memory used throughout the entire GTOINT-calculation: 13.5 MB


           ************************************************************
           *        Program running with 4 parallel MPI-processes     *
           *              working on a common directory               *
           ************************************************************
-------------------------------------------------------------------------------
                                 ORCA SCF
-------------------------------------------------------------------------------

------------
SCF SETTINGS
------------
Hamiltonian:
 Ab initio Hamiltonian  Method          .... Hartree-Fock(GTOs)


General Settings:
 Integral files         IntName         .... Cr_O6
 Hartree-Fock type      HFTyp           .... UHF
 Total Charge           Charge          ....   -9
 Multiplicity           Mult            ....    6
 Number of Electrons    NEL             ....   81
 Basis Dimension        Dim             ....  115
 Nuclear Repulsion      ENuc            ....    439.0382885477 Eh

Convergence Acceleration:
 DIIS                   CNVDIIS         .... on
   Start iteration      DIISMaxIt       ....    12
   Startup error        DIISStart       ....  0.200000
   # of expansion vecs  DIISMaxEq       ....     5
   Bias factor          DIISBfac        ....   1.050
   Max. coefficient     DIISMaxC        ....  10.000
 Trust-Rad. Augm. Hess. CNVTRAH         .... auto
   Auto Start mean grad. ratio tolernc. ....  1.125000
   Auto Start start iteration           ....    20
   Auto Start num. interpolation iter.  ....    10
   Max. Number of Micro iterations      ....    16
   Max. Number of Macro iterations      .... Maxiter - #DIIS iter
   Number of Davidson start vectors     ....     2
   Converg. threshold I  (grad. norm)   ....   1.000e-05
   Converg. threshold II (energy diff.) ....   1.000e-08
   Grad. Scal. Fac. for Micro threshold ....   0.100
   Minimum threshold for Micro iter.    ....   0.010
   NR start threshold (gradient norm)   ....   0.001
   Initial trust radius                 ....   0.400
   Minimum AH scaling param. (alpha)    ....   1.000
   Maximum AH scaling param. (alpha)    .... 1000.000
   Orbital update algorithm             .... Taylor
   White noise on init. David. guess    .... on
   Maximum white noise                  ....   0.010
   Quad. conv. algorithm                .... NR
 SOSCF                  CNVSOSCF        .... off
 Level Shifting         CNVShift        .... on
   Level shift para.    LevelShift      ....    0.2500
   Turn off err/grad.   ShiftErr        ....    0.0010
 Zerner damping         CNVZerner       .... off
 Static damping         CNVDamp         .... on
   Fraction old density DampFac         ....    0.7000
   Max. Damping (<1)    DampMax         ....    0.9800
   Min. Damping (>=0)   DampMin         ....    0.0000
   Turn off err/grad.   DampErr         ....    0.1000
 Fernandez-Rico         CNVRico         .... off

SCF Procedure:
 Maximum # iterations   MaxIter         ....   125
 SCF integral mode      SCFMode         .... Direct
   Integral package                     .... SHARK and LIBINT hybrid scheme
 Reset frequency        DirectResetFreq ....    20
 Integral Threshold     Thresh          ....  2.500e-11 Eh
 Primitive CutOff       TCut            ....  2.500e-12 Eh

Convergence Tolerance:
 Convergence Check Mode ConvCheckMode   .... Total+1el-Energy
 Convergence forced     ConvForced      .... 0
 Energy Change          TolE            ....  1.000e-08 Eh
 1-El. energy change                    ....  1.000e-05 Eh
 DIIS Error             TolErr          ....  5.000e-07


Diagonalization of the overlap matrix:
Smallest eigenvalue                        ... 2.778e-02
Time for diagonalization                   ...    0.002 sec
Threshold for overlap eigenvalues          ... 1.000e-08
Number of eigenvalues below threshold      ... 0
Time for construction of square roots      ...    0.001 sec
Total time needed                          ...    0.003 sec

SHARK General Contraction Test:  Segmented basis detected
   -> Pre-screening matrix found on disk - Trying to read with NShells=47
   -> Passing Pre-screening matrix on to SHARK ...ok
   -> Leaving CheckPreScreeningMatrix
----------------------
SHARK INTEGRAL PACKAGE
----------------------

Number of atoms                             ...      7
Number of basis functions                   ...    115
Number of shells                            ...     47
Maximum angular momentum                    ...      3
Integral batch strategy                     ... SHARK/LIBINT Hybrid
RI-J (if used) integral strategy            ... SPLIT-RIJ (Revised 2003 algorithm where possible)
Printlevel                                  ...      2
Contraction scheme used                     ... SEGMENTED contraction
Coulomb Range Separation                    ... NOT USED
Exchange Range Separation                   ... NOT USED
Finite Nucleus Model                        ... NOT USED
Auxiliary Coulomb fitting basis             ... NOT available
Auxiliary J/K fitting basis                 ... NOT available
Auxiliary Correlation fitting basis         ... NOT available
Auxiliary 'external' fitting basis          ... NOT available
Integral threshold                          ...     2.500000e-11
Primitive cut-off                           ...     2.500000e-12
Primitive pair pre-selection threshold      ...     2.500000e-12

Time for model grid setup =    0.057 sec

------------------------------
INITIAL GUESS: MODEL POTENTIAL
------------------------------
Loading Hartree-Fock densities                     ... done
Calculating cut-offs                               ... done
Initializing the effective Hamiltonian             ... done
Setting up the integral package (SHARK)            ... done
Starting the Coulomb interaction                   ...     -> Generating integrals - 
    -> L=0 0 :     0.002 sec done=     20502 skipped=       936 prim-skipped=         0
    -> L=1 0 :     0.003 sec done=     27945 skipped=       150 prim-skipped=         0
    -> L=1 1 :     0.002 sec done=     10785 skipped=        72 prim-skipped=         0
    -> L=2 0 :     0.002 sec done=     13588 skipped=       146 prim-skipped=         0
    -> L=2 1 :     0.003 sec done=     10460 skipped=       118 prim-skipped=         0
    -> L=2 2 :     0.002 sec done=      3021 skipped=        36 prim-skipped=         0
    -> L=3 0 :     0.000 sec done=      2133 skipped=         6 prim-skipped=         0
    -> L=3 1 :     0.001 sec done=      1395 skipped=         0 prim-skipped=         0
    -> L=3 2 :     0.001 sec done=       744 skipped=         0 prim-skipped=         0
    -> L=3 3 :     0.000 sec done=        93 skipped=         0 prim-skipped=         0
done (   0.0 sec)
Reading the grid                                   ... done
Mapping shells                                     ... done
Starting the XC term evaluation                    ... done (   0.0 sec)
Transforming the Hamiltonian                       ... done (   0.0 sec)
Diagonalizing the Hamiltonian                      ... done (   0.0 sec)
Back transforming the eigenvectors                 ... done (   0.0 sec)
Now organizing SCF variables                       ... done
                      ------------------
                      INITIAL GUESS DONE (   0.1 sec)
                      ------------------
----------------------
INITIAL GUESS ORBITALS
----------------------
                      0         1         2         3         4         5   
                 -213.92777 -24.22259 -20.64084 -20.64084 -20.64084 -18.74203
                   1.00000   1.00000   1.00000   1.00000   1.00000   1.00000
                  --------  --------  --------  --------  --------  --------
  0Cr  1s         0.995285 -0.330913  0.000000  0.000000 -0.000000  0.000225
  0Cr  2s         0.015271  1.040656 -0.000000 -0.000000  0.000000 -0.000405
  0Cr  3s        -0.004034  0.025580  0.000000  0.000000 -0.000000  0.003872
  0Cr  4s         0.004539 -0.019564 -0.000000 -0.000000  0.000000 -0.019087
  0Cr  5s        -0.001372  0.006020 -0.000000  0.000000  0.000000 -0.000356
  0Cr  1pz       -0.000000 -0.000000  0.300175  0.699191  0.636738  0.000000
  0Cr  1px        0.000000  0.000000 -0.939931  0.294110  0.120151  0.000000
  0Cr  1py        0.000000 -0.000000  0.104077  0.639562 -0.751356 -0.000000
  0Cr  2pz        0.000000  0.000000  0.006834  0.015919  0.014497 -0.000000
  0Cr  2px        0.000000 -0.000000 -0.021400  0.006696  0.002736 -0.000000
  0Cr  2py       -0.000000  0.000000  0.002370  0.014562 -0.017107  0.000000
  0Cr  1dz2      -0.000000  0.000000  0.000000 -0.000000  0.000000  0.000000
  0Cr  1dxz       0.000000  0.000000  0.000000  0.000000  0.000000  0.000000
  0Cr  1dyz      -0.000000  0.000000  0.000000 -0.000000  0.000000  0.000000
  0Cr  1dx2y2     0.000000 -0.000000 -0.000000 -0.000000 -0.000000 -0.000000
  0Cr  1dxy      -0.000000  0.000000 -0.000000  0.000000 -0.000000 -0.000000
  0Cr  2dz2       0.000000 -0.000000 -0.000000  0.000000  0.000000 -0.000000
  0Cr  2dxz      -0.000000  0.000000 -0.000000 -0.000000 -0.000000  0.000000
  0Cr  2dyz       0.000000 -0.000000 -0.000000  0.000000 -0.000000 -0.000000
  0Cr  2dx2y2    -0.000000  0.000000  0.000000 -0.000000  0.000000  0.000000
  0Cr  2dxy       0.000000 -0.000000  0.000000  0.000000 -0.000000  0.000000
  0Cr  3pz       -0.000000 -0.000000 -0.002933 -0.006832 -0.006222  0.000000
  0Cr  3px       -0.000000  0.000000  0.009185 -0.002874 -0.001174  0.000000
  0Cr  3py        0.000000 -0.000000 -0.001017 -0.006250  0.007342  0.000000
  0Cr  1f0       -0.000000 -0.000000 -0.000060 -0.000140 -0.000127  0.000000
  0Cr  1f+1       0.000000 -0.000000 -0.000115  0.000036  0.000015 -0.000000
  0Cr  1f-1      -0.000000  0.000000  0.000013  0.000078 -0.000092 -0.000000
  0Cr  1f+2      -0.000000  0.000000  0.000000 -0.000000  0.000000  0.000000
  0Cr  1f-2      -0.000000 -0.000000 -0.000000  0.000000  0.000000 -0.000000
  0Cr  1f+3       0.000000 -0.000000 -0.000149  0.000047  0.000019 -0.000000
  0Cr  1f-3       0.000000 -0.000000 -0.000016 -0.000101  0.000119  0.000000
  1O   1s         0.000045 -0.000152 -0.000074  0.000023  0.000009  0.402891
  1O   2s         0.000442 -0.001755 -0.001299  0.000406  0.000166 -0.020116
  1O   3s        -0.001056  0.004342  0.004132 -0.001293 -0.000528  0.013340
  1O   1pz       -0.000000 -0.000000 -0.000106 -0.000247 -0.000225  0.000000
  1O   1px        0.000108 -0.000394  0.000022 -0.000007 -0.000003 -0.000768
  1O   1py        0.000000 -0.000000 -0.000037 -0.000226  0.000265 -0.000000
  1O   2pz        0.000000  0.000000  0.000419  0.000976  0.000889 -0.000000
  1O   2px       -0.000564  0.002262  0.001419 -0.000444 -0.000181  0.003104
  1O   2py       -0.000000  0.000000  0.000145  0.000892 -0.001048  0.000000
  1O   1dz2       0.000023 -0.000081 -0.000029  0.000009  0.000004 -0.000098
  1O   1dxz       0.000000  0.000000  0.000067  0.000156  0.000142 -0.000000
  1O   1dyz       0.000000 -0.000000  0.000000  0.000000  0.000000  0.000000
  1O   1dx2y2    -0.000039  0.000140  0.000050 -0.000016 -0.000006  0.000170
  1O   1dxy       0.000000  0.000000  0.000023  0.000143 -0.000168  0.000000
  2O   1s         0.000045 -0.000152  0.000074 -0.000023 -0.000009  0.402891
  2O   2s         0.000442 -0.001755  0.001299 -0.000406 -0.000166 -0.020116
  2O   3s        -0.001056  0.004342 -0.004132  0.001293  0.000528  0.013340
  2O   1pz       -0.000000 -0.000000 -0.000106 -0.000247 -0.000225  0.000000
  2O   1px       -0.000108  0.000394  0.000022 -0.000007 -0.000003  0.000768
  2O   1py        0.000000 -0.000000 -0.000037 -0.000226  0.000265 -0.000000
  2O   2pz       -0.000000  0.000000  0.000419  0.000976  0.000889 -0.000000
  2O   2px        0.000564 -0.002262  0.001419 -0.000444 -0.000181 -0.003104
  2O   2py       -0.000000  0.000000  0.000145  0.000892 -0.001048  0.000000
  2O   1dz2       0.000023 -0.000081  0.000029 -0.000009 -0.000004 -0.000098
  2O   1dxz       0.000000 -0.000000 -0.000067 -0.000156 -0.000142  0.000000
  2O   1dyz      -0.000000  0.000000 -0.000000  0.000000  0.000000  0.000000
  2O   1dx2y2    -0.000039  0.000140 -0.000050  0.000016  0.000006  0.000170
  2O   1dxy      -0.000000 -0.000000 -0.000023 -0.000143  0.000168  0.000000
  3O   1s         0.000045 -0.000152  0.000008  0.000050 -0.000059  0.402891
  3O   2s         0.000442 -0.001755  0.000144  0.000884 -0.001038 -0.020116
  3O   3s        -0.001056  0.004342 -0.000457 -0.002811  0.003303  0.013340
  3O   1pz       -0.000000 -0.000000 -0.000106 -0.000247 -0.000225  0.000000
  3O   1px       -0.000000  0.000000  0.000332 -0.000104 -0.000042  0.000000
  3O   1py        0.000108 -0.000394 -0.000002 -0.000015  0.000017 -0.000768
  3O   2pz        0.000000  0.000000  0.000419  0.000976  0.000889 -0.000000
  3O   2px        0.000000 -0.000000 -0.001312  0.000410  0.000168 -0.000000
  3O   2py       -0.000564  0.002262 -0.000157 -0.000966  0.001135  0.003104
  3O   1dz2       0.000023 -0.000081  0.000003  0.000020 -0.000023 -0.000098
  3O   1dxz      -0.000000 -0.000000 -0.000000  0.000000  0.000000 -0.000000
  3O   1dyz       0.000000  0.000000  0.000067  0.000156  0.000142 -0.000000
  3O   1dx2y2     0.000039 -0.000140  0.000006  0.000034 -0.000040 -0.000170
  3O   1dxy       0.000000 -0.000000 -0.000210  0.000066  0.000027 -0.000000
  4O   1s         0.000045 -0.000152 -0.000008 -0.000050  0.000059  0.402891
  4O   2s         0.000442 -0.001755 -0.000144 -0.000884  0.001038 -0.020116
  4O   3s        -0.001056  0.004342  0.000457  0.002811 -0.003303  0.013340
  4O   1pz       -0.000000 -0.000000 -0.000106 -0.000247 -0.000225  0.000000
  4O   1px       -0.000000  0.000000  0.000332 -0.000104 -0.000042  0.000000
  4O   1py       -0.000108  0.000394 -0.000002 -0.000015  0.000017  0.000768
  4O   2pz        0.000000  0.000000  0.000419  0.000976  0.000889 -0.000000
  4O   2px        0.000000 -0.000000 -0.001312  0.000410  0.000168 -0.000000
  4O   2py        0.000564 -0.002262 -0.000157 -0.000966  0.001135 -0.003104
  4O   1dz2       0.000023 -0.000081 -0.000003 -0.000020  0.000023 -0.000098
  4O   1dxz      -0.000000  0.000000 -0.000000  0.000000  0.000000 -0.000000
  4O   1dyz       0.000000 -0.000000 -0.000067 -0.000156 -0.000142  0.000000
  4O   1dx2y2     0.000039 -0.000140 -0.000006 -0.000034  0.000040 -0.000170
  4O   1dxy      -0.000000  0.000000  0.000210 -0.000066 -0.000027  0.000000
  5O   1s         0.000045 -0.000152 -0.000023 -0.000055 -0.000050  0.402891
  5O   2s         0.000442 -0.001755 -0.000415 -0.000966 -0.000880 -0.020116
  5O   3s        -0.001056  0.004342  0.001319  0.003073  0.002799  0.013340
  5O   1pz       -0.000108  0.000394 -0.000007 -0.000016 -0.000015  0.000768
  5O   1px       -0.000000  0.000000  0.000332 -0.000104 -0.000042  0.000000
  5O   1py        0.000000 -0.000000 -0.000037 -0.000226  0.000265 -0.000000
  5O   2pz        0.000564 -0.002262 -0.000453 -0.001056 -0.000961 -0.003104
  5O   2px        0.000000 -0.000000 -0.001312  0.000410  0.000168 -0.000000
  5O   2py       -0.000000  0.000000  0.000145  0.000892 -0.001048  0.000000
  5O   1dz2      -0.000045  0.000162  0.000018  0.000043  0.000039  0.000196
  5O   1dxz      -0.000000  0.000000  0.000210 -0.000066 -0.000027  0.000000
  5O   1dyz      -0.000000 -0.000000 -0.000023 -0.000143  0.000168 -0.000000
  5O   1dx2y2     0.000000 -0.000000  0.000000 -0.000000  0.000000 -0.000000
  5O   1dxy      -0.000000 -0.000000 -0.000000  0.000000  0.000000  0.000000
  6O   1s         0.000045 -0.000152  0.000023  0.000055  0.000050  0.402891
  6O   2s         0.000442 -0.001755  0.000415  0.000966  0.000880 -0.020116
  6O   3s        -0.001056  0.004342 -0.001319 -0.003073 -0.002799  0.013340
  6O   1pz        0.000108 -0.000394 -0.000007 -0.000016 -0.000015 -0.000768
  6O   1px       -0.000000  0.000000  0.000332 -0.000104 -0.000042  0.000000
  6O   1py        0.000000 -0.000000 -0.000037 -0.000226  0.000265 -0.000000
  6O   2pz       -0.000564  0.002262 -0.000453 -0.001056 -0.000961  0.003104
  6O   2px        0.000000 -0.000000 -0.001312  0.000410  0.000168 -0.000000
  6O   2py       -0.000000  0.000000  0.000145  0.000892 -0.001048  0.000000
  6O   1dz2      -0.000045  0.000162 -0.000018 -0.000043 -0.000039  0.000196
  6O   1dxz      -0.000000 -0.000000 -0.000210  0.000066  0.000027 -0.000000
  6O   1dyz      -0.000000  0.000000  0.000023  0.000143 -0.000168 -0.000000
  6O   1dx2y2     0.000000 -0.000000 -0.000000  0.000000 -0.000000 -0.000000
  6O   1dxy      -0.000000  0.000000 -0.000000 -0.000000  0.000000  0.000000
                      6         7         8         9        10        11   
                 -18.74178 -18.74178 -18.74178 -18.74164 -18.74164  -2.76814
                   1.00000   1.00000   1.00000   1.00000   1.00000   1.00000
                  --------  --------  --------  --------  --------  --------
  0Cr  1s         0.000000  0.000000  0.000000 -0.000000  0.000000  0.122522
  0Cr  2s        -0.000000 -0.000000 -0.000000  0.000000 -0.000000 -0.456732
  0Cr  3s         0.000000  0.000000  0.000000 -0.000000  0.000000  1.080367
  0Cr  4s        -0.000000 -0.000000 -0.000000  0.000000 -0.000000  0.004224
  0Cr  5s         0.000000  0.000000 -0.000000 -0.000000  0.000000 -0.001669
  0Cr  1pz       -0.000202 -0.000178 -0.000170  0.000000 -0.000000 -0.000000
  0Cr  1px        0.000102  0.000140 -0.000268 -0.000000 -0.000000  0.000000
  0Cr  1py        0.000224 -0.000224 -0.000031 -0.000000  0.000000 -0.000000
  0Cr  2pz        0.000673  0.000596  0.000568 -0.000000  0.000000  0.000000
  0Cr  2px       -0.000341 -0.000466  0.000893  0.000000  0.000000 -0.000000
  0Cr  2py       -0.000749  0.000748  0.000104  0.000000 -0.000000  0.000000
  0Cr  1dz2       0.000000  0.000000 -0.000000  0.000465  0.000136  0.000000
  0Cr  1dxz       0.000000 -0.000000 -0.000000 -0.000000  0.000000  0.000000
  0Cr  1dyz       0.000000 -0.000000  0.000000  0.000000 -0.000000  0.000000
  0Cr  1dx2y2    -0.000000  0.000000 -0.000000 -0.000136  0.000465  0.000000
  0Cr  1dxy      -0.000000  0.000000  0.000000  0.000000  0.000000  0.000000
  0Cr  2dz2      -0.000000 -0.000000  0.000000 -0.006248 -0.001825  0.000000
  0Cr  2dxz      -0.000000  0.000000  0.000000  0.000000  0.000000 -0.000000
  0Cr  2dyz      -0.000000  0.000000  0.000000  0.000000  0.000000 -0.000000
  0Cr  2dx2y2     0.000000 -0.000000  0.000000  0.001825 -0.006248 -0.000000
  0Cr  2dxy      -0.000000  0.000000 -0.000000 -0.000000 -0.000000 -0.000000
  0Cr  3pz       -0.006934 -0.006134 -0.005852  0.000000 -0.000000 -0.000000
  0Cr  3px        0.003516  0.004799 -0.009195 -0.000000 -0.000000  0.000000
  0Cr  3py        0.007714 -0.007700 -0.001069 -0.000000  0.000000  0.000000
  0Cr  1f0       -0.000455 -0.000403 -0.000384  0.000000 -0.000000 -0.000000
  0Cr  1f+1      -0.000141 -0.000193  0.000370  0.000000  0.000000 -0.000000
  0Cr  1f-1      -0.000310  0.000310  0.000043  0.000000 -0.000000  0.000000
  0Cr  1f+2       0.000000  0.000000 -0.000000  0.000000  0.000000  0.000000
  0Cr  1f-2      -0.000000 -0.000000  0.000000  0.000000  0.000000  0.000000
  0Cr  1f+3      -0.000183 -0.000249  0.000477  0.000000  0.000000  0.000000
  0Cr  1f-3       0.000400 -0.000400 -0.000055 -0.000000  0.000000 -0.000000
  1O   1s         0.224120  0.305878 -0.586113 -0.412022  0.394001  0.000357
  1O   2s        -0.010428 -0.014232  0.027272  0.018575 -0.017762 -0.000132
  1O   3s         0.005757  0.007857 -0.015056 -0.009276  0.008870  0.001864
  1O   1pz       -0.000149 -0.000132 -0.000126  0.000000 -0.000000 -0.000000
  1O   1px       -0.000356 -0.000485  0.000930  0.000504 -0.000482  0.000451
  1O   1py        0.000166 -0.000165 -0.000023 -0.000000  0.000000 -0.000000
  1O   2pz        0.000766  0.000678  0.000647 -0.000000  0.000000  0.000000
  1O   2px        0.001348  0.001839 -0.003524 -0.002318  0.002217  0.001829
  1O   2py       -0.000852  0.000851  0.000118  0.000000 -0.000000  0.000000
  1O   1dz2      -0.000046 -0.000063  0.000120  0.000196 -0.000136 -0.000284
  1O   1dxz       0.000155  0.000137  0.000131 -0.000000  0.000000  0.000000
  1O   1dyz       0.000000 -0.000000  0.000000  0.000000 -0.000000 -0.000000
  1O   1dx2y2     0.000080  0.000109 -0.000208 -0.000280  0.000298  0.000491
  1O   1dxy      -0.000173  0.000173  0.000024  0.000000 -0.000000 -0.000000
  2O   1s        -0.224120 -0.305878  0.586113 -0.412022  0.394001  0.000357
  2O   2s         0.010428  0.014232 -0.027272  0.018575 -0.017762 -0.000132
  2O   3s        -0.005757 -0.007857  0.015056 -0.009276  0.008870  0.001864
  2O   1pz       -0.000149 -0.000132 -0.000126  0.000000 -0.000000 -0.000000
  2O   1px       -0.000356 -0.000485  0.000930 -0.000504  0.000482 -0.000451
  2O   1py        0.000166 -0.000165 -0.000023 -0.000000  0.000000 -0.000000
  2O   2pz        0.000766  0.000678  0.000647 -0.000000  0.000000  0.000000
  2O   2px        0.001348  0.001839 -0.003524  0.002318 -0.002217 -0.001829
  2O   2py       -0.000852  0.000851  0.000118  0.000000 -0.000000  0.000000
  2O   1dz2       0.000046  0.000063 -0.000120  0.000196 -0.000136 -0.000284
  2O   1dxz      -0.000155 -0.000137 -0.000131  0.000000 -0.000000 -0.000000
  2O   1dyz      -0.000000 -0.000000  0.000000  0.000000 -0.000000 -0.000000
  2O   1dx2y2    -0.000080 -0.000109  0.000208 -0.000280  0.000298  0.000491
  2O   1dxy       0.000173 -0.000173 -0.000024 -0.000000  0.000000  0.000000
  3O   1s         0.491703 -0.490822 -0.068129 -0.135204 -0.553822  0.000357
  3O   2s        -0.022879  0.022838  0.003170  0.006095  0.024967 -0.000132
  3O   3s         0.012631 -0.012608 -0.001750 -0.003044 -0.012468  0.001864
  3O   1pz       -0.000149 -0.000132 -0.000126  0.000000 -0.000000 -0.000000
  3O   1px        0.000075  0.000103 -0.000197 -0.000000 -0.000000  0.000000
  3O   1py       -0.000780  0.000779  0.000108  0.000165  0.000678  0.000451
  3O   2pz        0.000766  0.000678  0.000647 -0.000000  0.000000  0.000000
  3O   2px       -0.000389 -0.000530  0.001016  0.000000  0.000000 -0.000000
  3O   2py        0.002956 -0.002951 -0.000410 -0.000761 -0.003116  0.001829
  3O   1dz2      -0.000101  0.000101  0.000014  0.000092  0.000220 -0.000284
  3O   1dxz      -0.000000 -0.000000 -0.000000 -0.000000 -0.000000  0.000000
  3O   1dyz       0.000155  0.000137  0.000131 -0.000000  0.000000  0.000000
  3O   1dx2y2    -0.000175  0.000174  0.000024  0.000076  0.000402 -0.000491
  3O   1dxy      -0.000079 -0.000108  0.000206  0.000000  0.000000 -0.000000
  4O   1s        -0.491703  0.490822  0.068129 -0.135204 -0.553822  0.000357
  4O   2s         0.022879 -0.022838 -0.003170  0.006095  0.024967 -0.000132
  4O   3s        -0.012631  0.012608  0.001750 -0.003044 -0.012468  0.001864
  4O   1pz       -0.000149 -0.000132 -0.000126  0.000000 -0.000000 -0.000000
  4O   1px        0.000075  0.000103 -0.000197 -0.000000 -0.000000 -0.000000
  4O   1py       -0.000780  0.000779  0.000108 -0.000165 -0.000678 -0.000451
  4O   2pz        0.000766  0.000678  0.000647 -0.000000  0.000000  0.000000
  4O   2px       -0.000389 -0.000530  0.001016  0.000000  0.000000  0.000000
  4O   2py        0.002956 -0.002951 -0.000410  0.000761  0.003116 -0.001829
  4O   1dz2       0.000101 -0.000101 -0.000014  0.000092  0.000220 -0.000284
  4O   1dxz       0.000000  0.000000 -0.000000 -0.000000 -0.000000  0.000000
  4O   1dyz      -0.000155 -0.000137 -0.000131  0.000000 -0.000000 -0.000000
  4O   1dx2y2     0.000175 -0.000174 -0.000024  0.000076  0.000402 -0.000491
  4O   1dxy       0.000079  0.000108 -0.000206 -0.000000 -0.000000 -0.000000
  5O   1s         0.441948  0.390962  0.373028  0.547226  0.159821  0.000357
  5O   2s        -0.020564 -0.018191 -0.017357 -0.024670 -0.007205 -0.000132
  5O   3s         0.011352  0.010043  0.009582  0.012319  0.003598  0.001864
  5O   1pz        0.000701  0.000620  0.000592  0.000670  0.000196 -0.000451
  5O   1px        0.000075  0.000103 -0.000197 -0.000000 -0.000000  0.000000
  5O   1py        0.000166 -0.000165 -0.000023 -0.000000  0.000000 -0.000000
  5O   2pz       -0.002657 -0.002351 -0.002243 -0.003079 -0.000899 -0.001829
  5O   2px       -0.000389 -0.000530  0.001016  0.000000  0.000000 -0.000000
  5O   2py       -0.000852  0.000851  0.000118  0.000000 -0.000000  0.000000
  5O   1dz2       0.000181  0.000160  0.000153  0.000453  0.000132  0.000567
  5O   1dxz       0.000079  0.000108 -0.000206 -0.000000 -0.000000 -0.000000
  5O   1dyz       0.000173 -0.000173 -0.000024 -0.000000  0.000000 -0.000000
  5O   1dx2y2    -0.000000  0.000000 -0.000000 -0.000012  0.000041  0.000000
  5O   1dxy      -0.000000  0.000000  0.000000 -0.000000 -0.000000 -0.000000
  6O   1s        -0.441948 -0.390962 -0.373028  0.547226  0.159821  0.000357
  6O   2s         0.020564  0.018191  0.017357 -0.024670 -0.007205 -0.000132
  6O   3s        -0.011352 -0.010043 -0.009582  0.012319  0.003598  0.001864
  6O   1pz        0.000701  0.000620  0.000592 -0.000670 -0.000196  0.000451
  6O   1px        0.000075  0.000103 -0.000197 -0.000000 -0.000000 -0.000000
  6O   1py        0.000166 -0.000165 -0.000023 -0.000000  0.000000 -0.000000
  6O   2pz       -0.002657 -0.002351 -0.002243  0.003079  0.000899  0.001829
  6O   2px       -0.000389 -0.000530  0.001016  0.000000  0.000000 -0.000000
  6O   2py       -0.000852  0.000851  0.000118  0.000000 -0.000000  0.000000
  6O   1dz2      -0.000181 -0.000160 -0.000153  0.000453  0.000132  0.000567
  6O   1dxz      -0.000079 -0.000108  0.000206  0.000000  0.000000 -0.000000
  6O   1dyz      -0.000173  0.000173  0.000024  0.000000 -0.000000 -0.000000
  6O   1dx2y2    -0.000000  0.000000 -0.000000 -0.000012  0.000041 -0.000000
  6O   1dxy       0.000000 -0.000000 -0.000000  0.000000 -0.000000  0.000000
                     12        13        14        15        16        17   
                  -1.77285  -1.77285  -1.77285  -0.88735  -0.87394  -0.87394
                   1.00000   1.00000   1.00000   1.00000   1.00000   1.00000
                  --------  --------  --------  --------  --------  --------
  0Cr  1s         0.000000 -0.000000 -0.000000  0.007883  0.000000 -0.000000
  0Cr  2s         0.000000  0.000000  0.000000 -0.025315 -0.000000  0.000000
  0Cr  3s         0.000000 -0.000000  0.000000  0.093858  0.000000 -0.000000
  0Cr  4s        -0.000000  0.000000 -0.000000 -0.100860 -0.000000 -0.000000
  0Cr  5s         0.000000 -0.000000  0.000000  0.009333  0.000000 -0.000000
  0Cr  1pz       -0.008806  0.008155 -0.386543 -0.000000  0.014040 -0.022568
  0Cr  1px       -0.113913  0.369426  0.010389 -0.000000  0.013359  0.010317
  0Cr  1py       -0.369467 -0.114095  0.006010 -0.000000  0.018321  0.009773
  0Cr  2pz        0.024278 -0.022483  1.065709  0.000000 -0.042172  0.067787
  0Cr  2px        0.314060 -1.018517 -0.028642  0.000000 -0.040125 -0.030987
  0Cr  2py        1.018630  0.314561 -0.016570  0.000000 -0.055030 -0.029353
  0Cr  1dz2      -0.000000  0.000000 -0.000000 -0.000000 -0.000000  0.000000
  0Cr  1dxz      -0.000000  0.000000  0.000000 -0.000000 -0.000000  0.000000
  0Cr  1dyz      -0.000000 -0.000000  0.000000  0.000000 -0.000000 -0.000000
  0Cr  1dx2y2     0.000000 -0.000000 -0.000000  0.000000 -0.000000 -0.000000
  0Cr  1dxy      -0.000000 -0.000000 -0.000000 -0.000000  0.000000  0.000000
  0Cr  2dz2       0.000000 -0.000000  0.000000  0.000000 -0.000000  0.000000
  0Cr  2dxz      -0.000000 -0.000000 -0.000000 -0.000000 -0.000000  0.000000
  0Cr  2dyz       0.000000  0.000000 -0.000000  0.000000  0.000000 -0.000000
  0Cr  2dx2y2    -0.000000  0.000000  0.000000  0.000000 -0.000000 -0.000000
  0Cr  2dxy       0.000000  0.000000 -0.000000  0.000000  0.000000 -0.000000
  0Cr  3pz       -0.000267  0.000247 -0.011726  0.000000  0.023801 -0.038257
  0Cr  3px       -0.003456  0.011207  0.000315  0.000000  0.022646  0.017488
  0Cr  3py       -0.011208 -0.003461  0.000182  0.000000  0.031058  0.016566
  0Cr  1f0        0.000006 -0.000006  0.000268 -0.000000  0.001802 -0.002897
  0Cr  1f+1      -0.000048  0.000157  0.000004  0.000000 -0.001050 -0.000811
  0Cr  1f-1      -0.000157 -0.000048  0.000003  0.000000 -0.001440 -0.000768
  0Cr  1f+2      -0.000000  0.000000 -0.000000 -0.000000 -0.000000 -0.000000
  0Cr  1f-2       0.000000 -0.000000  0.000000 -0.000000  0.000000 -0.000000
  0Cr  1f+3      -0.000062  0.000203  0.000006  0.000000 -0.001356 -0.001047
  0Cr  1f-3       0.000203  0.000063 -0.000003 -0.000000  0.001859  0.000992
  1O   1s        -0.000988  0.003205  0.000090 -0.124633 -0.110659 -0.085458
  1O   2s        -0.001265  0.004101  0.000115 -0.252169 -0.223414 -0.172534
  1O   3s        -0.003156  0.010234  0.000288 -0.170024 -0.157144 -0.121356
  1O   1pz        0.000005 -0.000004  0.000209  0.000000  0.001627 -0.002616
  1O   1px       -0.001393  0.004516  0.000127 -0.017654 -0.011800 -0.009113
  1O   1py        0.000199  0.000062 -0.000003  0.000000  0.002123  0.001133
  1O   2pz        0.000055 -0.000051  0.002418 -0.000000 -0.000022  0.000035
  1O   2px       -0.001524  0.004943  0.000139 -0.011445 -0.008053 -0.006219
  1O   2py        0.002311  0.000714 -0.000038 -0.000000 -0.000029 -0.000015
  1O   1dz2       0.000158 -0.000511 -0.000014  0.000897  0.000676  0.000522
  1O   1dxz       0.000011 -0.000010  0.000471 -0.000000  0.000132 -0.000212
  1O   1dyz       0.000000  0.000000  0.000000  0.000000  0.000000  0.000000
  1O   1dx2y2    -0.000273  0.000885  0.000025 -0.001553 -0.001170 -0.000904
  1O   1dxy       0.000450  0.000139 -0.000007  0.000000  0.000172  0.000092
  2O   1s         0.000988 -0.003205 -0.000090 -0.124633  0.110659  0.085458
  2O   2s         0.001265 -0.004101 -0.000115 -0.252169  0.223414  0.172534
  2O   3s         0.003156 -0.010234 -0.000288 -0.170024  0.157144  0.121356
  2O   1pz        0.000005 -0.000004  0.000209 -0.000000  0.001627 -0.002616
  2O   1px       -0.001393  0.004516  0.000127  0.017654 -0.011800 -0.009113
  2O   1py        0.000199  0.000062 -0.000003 -0.000000  0.002123  0.001133
  2O   2pz        0.000055 -0.000051  0.002418 -0.000000 -0.000022  0.000035
  2O   2px       -0.001524  0.004943  0.000139  0.011445 -0.008053 -0.006219
  2O   2py        0.002311  0.000714 -0.000038 -0.000000 -0.000029 -0.000015
  2O   1dz2      -0.000158  0.000511  0.000014  0.000897 -0.000676 -0.000522
  2O   1dxz      -0.000011  0.000010 -0.000471  0.000000 -0.000132  0.000212
  2O   1dyz      -0.000000 -0.000000 -0.000000  0.000000 -0.000000 -0.000000
  2O   1dx2y2     0.000273 -0.000885 -0.000025 -0.001553  0.001170  0.000904
  2O   1dxy      -0.000450 -0.000139  0.000007  0.000000 -0.000172 -0.000092
  3O   1s        -0.003205 -0.000990  0.000052 -0.124633 -0.151764 -0.080952
  3O   2s        -0.004102 -0.001267  0.000067 -0.252169 -0.306402 -0.163436
  3O   3s        -0.010235 -0.003161  0.000166 -0.170024 -0.215516 -0.114957
  3O   1pz        0.000005 -0.000004  0.000209 -0.000000  0.001627 -0.002616
  3O   1px        0.000061 -0.000199 -0.000006  0.000000  0.001548  0.001196
  3O   1py       -0.004517 -0.001395  0.000073 -0.017654 -0.016183 -0.008632
  3O   2pz        0.000055 -0.000051  0.002418 -0.000000 -0.000022  0.000035
  3O   2px        0.000712 -0.002311 -0.000065 -0.000000 -0.000021 -0.000016
  3O   2py       -0.004943 -0.001527  0.000080 -0.011445 -0.011044 -0.005891
  3O   1dz2       0.000511  0.000158 -0.000008  0.000897  0.000926  0.000494
  3O   1dxz      -0.000000 -0.000000 -0.000000 -0.000000  0.000000 -0.000000
  3O   1dyz       0.000011 -0.000010  0.000471 -0.000000  0.000132 -0.000212
  3O   1dx2y2     0.000885  0.000273 -0.000014  0.001553  0.001605  0.000856
  3O   1dxy       0.000139 -0.000450 -0.000013 -0.000000  0.000125  0.000097
  4O   1s         0.003205  0.000990 -0.000052 -0.124633  0.151764  0.080952
  4O   2s         0.004102  0.001267 -0.000067 -0.252169  0.306402  0.163436
  4O   3s         0.010235  0.003161 -0.000166 -0.170024  0.215516  0.114957
  4O   1pz        0.000005 -0.000004  0.000209 -0.000000  0.001627 -0.002616
  4O   1px        0.000061 -0.000199 -0.000006  0.000000  0.001548  0.001196
  4O   1py       -0.004517 -0.001395  0.000073  0.017654 -0.016183 -0.008632
  4O   2pz        0.000055 -0.000051  0.002418 -0.000000 -0.000022  0.000035
  4O   2px        0.000712 -0.002311 -0.000065 -0.000000 -0.000021 -0.000016
  4O   2py       -0.004943 -0.001527  0.000080  0.011445 -0.011044 -0.005891
  4O   1dz2      -0.000511 -0.000158  0.000008  0.000897 -0.000926 -0.000494
  4O   1dxz       0.000000 -0.000000 -0.000000 -0.000000  0.000000  0.000000
  4O   1dyz      -0.000011  0.000010 -0.000471 -0.000000 -0.000132  0.000212
  4O   1dx2y2    -0.000885 -0.000273  0.000014  0.001553 -0.001605 -0.000856
  4O   1dxy      -0.000139  0.000450  0.000013  0.000000 -0.000125 -0.000097
  5O   1s         0.000076 -0.000071  0.003353 -0.124633  0.116304 -0.186944
  5O   2s         0.000098 -0.000091  0.004291 -0.252169  0.234809 -0.377428
  5O   3s         0.000244 -0.000226  0.010708 -0.170024  0.165159 -0.265474
  5O   1pz       -0.000108  0.000100 -0.004725  0.017654 -0.012402  0.019935
  5O   1px        0.000061 -0.000199 -0.000006  0.000000  0.001548  0.001196
  5O   1py        0.000199  0.000062 -0.000003  0.000000  0.002123  0.001133
  5O   2pz       -0.000118  0.000109 -0.005172  0.011445 -0.008463  0.013604
  5O   2px        0.000712 -0.002311 -0.000065 -0.000000 -0.000021 -0.000016
  5O   2py        0.002311  0.000714 -0.000038 -0.000000 -0.000029 -0.000015
  5O   1dz2       0.000024 -0.000023  0.001069 -0.001794  0.001420 -0.002282
  5O   1dxz      -0.000139  0.000450  0.000013  0.000000 -0.000125 -0.000097
  5O   1dyz      -0.000450 -0.000139  0.000007  0.000000 -0.000172 -0.000092
  5O   1dx2y2     0.000000 -0.000000 -0.000000 -0.000000 -0.000000 -0.000000
  5O   1dxy      -0.000000  0.000000  0.000000  0.000000 -0.000000 -0.000000
  6O   1s        -0.000076  0.000071 -0.003353 -0.124633 -0.116304  0.186944
  6O   2s        -0.000098  0.000091 -0.004291 -0.252169 -0.234809  0.377428
  6O   3s        -0.000244  0.000226 -0.010708 -0.170024 -0.165159  0.265474
  6O   1pz       -0.000108  0.000100 -0.004725 -0.017654 -0.012402  0.019935
  6O   1px        0.000061 -0.000199 -0.000006 -0.000000  0.001548  0.001196
  6O   1py        0.000199  0.000062 -0.000003 -0.000000  0.002123  0.001133
  6O   2pz       -0.000118  0.000109 -0.005172 -0.011445 -0.008463  0.013604
  6O   2px        0.000712 -0.002311 -0.000065 -0.000000 -0.000021 -0.000016
  6O   2py        0.002311  0.000714 -0.000038 -0.000000 -0.000029 -0.000015
  6O   1dz2      -0.000024  0.000023 -0.001069 -0.001794 -0.001420  0.002282
  6O   1dxz       0.000139 -0.000450 -0.000013 -0.000000  0.000125  0.000097
  6O   1dyz       0.000450  0.000139 -0.000007 -0.000000  0.000172  0.000092
  6O   1dx2y2     0.000000  0.000000 -0.000000  0.000000 -0.000000 -0.000000
  6O   1dxy      -0.000000 -0.000000 -0.000000  0.000000  0.000000  0.000000
                     18        19        20        21        22        23   
                  -0.87394  -0.87293  -0.87293  -0.41095  -0.39099  -0.39099
                   1.00000   1.00000   1.00000   1.00000   1.00000   1.00000
                  --------  --------  --------  --------  --------  --------
  0Cr  1s         0.000000  0.000000 -0.000000 -0.018197  0.000000 -0.000000
  0Cr  2s        -0.000000 -0.000000  0.000000  0.054244 -0.000000  0.000000
  0Cr  3s        -0.000000  0.000000 -0.000000 -0.237681  0.000000 -0.000000
  0Cr  4s         0.000000 -0.000000  0.000000  0.465588  0.000000 -0.000000
  0Cr  5s         0.000000  0.000000  0.000000 -0.181699  0.000000 -0.000000
  0Cr  1pz        0.002192  0.000000 -0.000000  0.000000  0.000000 -0.000000
  0Cr  1px        0.020649 -0.000000 -0.000000 -0.000000 -0.000000 -0.000000
  0Cr  1py       -0.016736  0.000000  0.000000 -0.000000  0.000000  0.000000
  0Cr  2pz       -0.006584 -0.000000  0.000000 -0.000000 -0.000000  0.000000
  0Cr  2px       -0.062021  0.000000  0.000000  0.000000  0.000000  0.000000
  0Cr  2py        0.050268 -0.000000 -0.000000  0.000000 -0.000000 -0.000000
  0Cr  1dz2      -0.000000  0.017863 -0.039556 -0.000000 -0.234764  0.174956
  0Cr  1dxz      -0.000000 -0.000000 -0.000000 -0.000000  0.000000  0.000000
  0Cr  1dyz       0.000000 -0.000000 -0.000000  0.000000  0.000000 -0.000000
  0Cr  1dx2y2    -0.000000 -0.039556 -0.017863 -0.000000 -0.174956 -0.234764
  0Cr  1dxy      -0.000000 -0.000000  0.000000 -0.000000  0.000000  0.000000
  0Cr  2dz2      -0.000000  0.018263 -0.040443  0.000000 -0.126836  0.094524
  0Cr  2dxz       0.000000 -0.000000 -0.000000 -0.000000  0.000000  0.000000
  0Cr  2dyz      -0.000000  0.000000  0.000000  0.000000  0.000000 -0.000000
  0Cr  2dx2y2    -0.000000 -0.040443 -0.018263  0.000000 -0.094524 -0.126836
  0Cr  2dxy       0.000000 -0.000000 -0.000000  0.000000  0.000000  0.000000
  0Cr  3pz        0.003716  0.000000 -0.000000 -0.000000  0.000000 -0.000000
  0Cr  3px        0.035003 -0.000000 -0.000000 -0.000000 -0.000000  0.000000
  0Cr  3py       -0.028370  0.000000  0.000000 -0.000000 -0.000000 -0.000000
  0Cr  1f0        0.000281  0.000000 -0.000000 -0.000000  0.000000  0.000000
  0Cr  1f+1      -0.001623  0.000000  0.000000  0.000000  0.000000 -0.000000
  0Cr  1f-1       0.001316 -0.000000 -0.000000 -0.000000  0.000000  0.000000
  0Cr  1f+2       0.000000  0.000000 -0.000000 -0.000000 -0.000000  0.000000
  0Cr  1f-2       0.000000  0.000000 -0.000000 -0.000000  0.000000 -0.000000
  0Cr  1f+3      -0.002095  0.000000  0.000000  0.000000 -0.000000 -0.000000
  0Cr  1f-3      -0.001698  0.000000  0.000000  0.000000 -0.000000 -0.000000
  1O   1s        -0.171043 -0.180098  0.017966 -0.024131  0.002269  0.019330
  1O   2s        -0.345325 -0.365199  0.036431 -0.051970  0.004367  0.037206
  1O   3s        -0.242894 -0.251635  0.025102 -0.063629  0.007618  0.064901
  1O   1pz        0.000254  0.000000 -0.000000 -0.000000  0.000000 -0.000000
  1O   1px       -0.018239 -0.020429  0.002038  0.242173 -0.040746 -0.347107
  1O   1py       -0.001940  0.000000 -0.000000 -0.000000  0.000000  0.000000
  1O   2pz       -0.000003  0.000000  0.000000 -0.000000  0.000000 -0.000000
  1O   2px       -0.012447 -0.006801  0.000678  0.152213 -0.024602 -0.209582
  1O   2py        0.000026 -0.000000 -0.000000 -0.000000  0.000000  0.000000
  1O   1dz2       0.001044  0.000839 -0.000316 -0.001987 -0.000406  0.002846
  1O   1dxz       0.000021  0.000000 -0.000000  0.000000  0.000000 -0.000000
  1O   1dyz      -0.000000 -0.000000 -0.000000  0.000000  0.000000  0.000000
  1O   1dx2y2    -0.001809 -0.001505  0.000016  0.003441 -0.000983 -0.004731
  1O   1dxy      -0.000157 -0.000000 -0.000000 -0.000000  0.000000  0.000000
  2O   1s         0.171043 -0.180098  0.017966 -0.024131  0.002269  0.019330
  2O   2s         0.345325 -0.365199  0.036431 -0.051970  0.004367  0.037206
  2O   3s         0.242894 -0.251635  0.025102 -0.063629  0.007618  0.064901
  2O   1pz        0.000254  0.000000 -0.000000 -0.000000  0.000000  0.000000
  2O   1px       -0.018239  0.020429 -0.002038 -0.242173  0.040746  0.347107
  2O   1py       -0.001940  0.000000  0.000000 -0.000000  0.000000  0.000000
  2O   2pz       -0.000003  0.000000  0.000000 -0.000000  0.000000  0.000000
  2O   2px       -0.012447  0.006801 -0.000678 -0.152213  0.024602  0.209582
  2O   2py        0.000026 -0.000000 -0.000000 -0.000000  0.000000  0.000000
  2O   1dz2      -0.001044  0.000839 -0.000316 -0.001987 -0.000406  0.002846
  2O   1dxz      -0.000021 -0.000000  0.000000  0.000000 -0.000000  0.000000
  2O   1dyz       0.000000 -0.000000  0.000000 -0.000000  0.000000 -0.000000
  2O   1dx2y2     0.001809 -0.001505  0.000016  0.003441 -0.000983 -0.004731
  2O   1dxy       0.000157  0.000000  0.000000  0.000000 -0.000000 -0.000000
  3O   1s         0.138632  0.105608  0.146986 -0.024131 -0.017874 -0.007700
  3O   2s         0.279889  0.214149  0.298056 -0.051970 -0.034405 -0.014820
  3O   3s         0.196867  0.147557  0.205371 -0.063629 -0.060015 -0.025853
  3O   1pz        0.000254  0.000000 -0.000000 -0.000000  0.000000 -0.000000
  3O   1px        0.002393 -0.000000 -0.000000 -0.000000 -0.000000 -0.000000
  3O   1py        0.014783  0.011979  0.016673  0.242173  0.320977  0.138267
  3O   2pz       -0.000003  0.000000  0.000000 -0.000000  0.000000 -0.000000
  3O   2px       -0.000032 -0.000000  0.000000 -0.000000 -0.000000 -0.000000
  3O   2py        0.010088  0.003988  0.005550  0.152213  0.193805  0.083485
  3O   1dz2      -0.000846 -0.000318 -0.000838 -0.001987 -0.002843 -0.000424
  3O   1dxz      -0.000000 -0.000000 -0.000000 -0.000000  0.000000  0.000000
  3O   1dyz       0.000021  0.000000 -0.000000  0.000000  0.000000 -0.000000
  3O   1dx2y2    -0.001466 -0.000983 -0.001140 -0.003441 -0.004253 -0.002294
  3O   1dxy       0.000194 -0.000000 -0.000000 -0.000000 -0.000000  0.000000
  4O   1s        -0.138632  0.105608  0.146986 -0.024131 -0.017874 -0.007700
  4O   2s        -0.279889  0.214149  0.298056 -0.051970 -0.034405 -0.014820
  4O   3s        -0.196867  0.147557  0.205371 -0.063629 -0.060015 -0.025853
  4O   1pz        0.000254  0.000000 -0.000000 -0.000000  0.000000 -0.000000
  4O   1px        0.002393 -0.000000 -0.000000 -0.000000  0.000000 -0.000000
  4O   1py        0.014783 -0.011979 -0.016673 -0.242173 -0.320977 -0.138267
  4O   2pz       -0.000003  0.000000  0.000000 -0.000000  0.000000 -0.000000
  4O   2px       -0.000032 -0.000000  0.000000 -0.000000  0.000000 -0.000000
  4O   2py        0.010088 -0.003988 -0.005550 -0.152213 -0.193805 -0.083485
  4O   1dz2       0.000846 -0.000318 -0.000838 -0.001987 -0.002843 -0.000424
  4O   1dxz       0.000000 -0.000000 -0.000000 -0.000000  0.000000 -0.000000
  4O   1dyz      -0.000021 -0.000000  0.000000  0.000000 -0.000000  0.000000
  4O   1dx2y2     0.001466 -0.000983 -0.001140 -0.003441 -0.004253 -0.002294
  4O   1dxy      -0.000194  0.000000  0.000000  0.000000 -0.000000  0.000000
  5O   1s         0.018158  0.074490 -0.164952 -0.024131  0.015605 -0.011630
  5O   2s         0.036660  0.151049 -0.334487 -0.051970  0.030037 -0.022385
  5O   3s         0.025786  0.104078 -0.230473 -0.063629  0.052397 -0.039048
  5O   1pz       -0.001936 -0.008450  0.018711 -0.242173  0.280231 -0.208840
  5O   1px        0.002393 -0.000000 -0.000000 -0.000000  0.000000 -0.000000
  5O   1py       -0.001940  0.000000  0.000000 -0.000000  0.000000  0.000000
  5O   2pz       -0.001321 -0.002813  0.006229 -0.152213  0.169203 -0.126097
  5O   2px       -0.000032 -0.000000  0.000000 -0.000000  0.000000 -0.000000
  5O   2py        0.000026 -0.000000 -0.000000 -0.000000  0.000000  0.000000
  5O   1dz2       0.000222  0.000713 -0.001578  0.003973 -0.004457  0.003322
  5O   1dxz      -0.000194  0.000000  0.000000  0.000000  0.000000 -0.000000
  5O   1dyz       0.000157  0.000000  0.000000  0.000000 -0.000000 -0.000000
  5O   1dx2y2    -0.000000 -0.000243 -0.000110 -0.000000 -0.000507 -0.000681
  5O   1dxy      -0.000000  0.000000 -0.000000  0.000000  0.000000 -0.000000
  6O   1s        -0.018158  0.074490 -0.164952 -0.024131  0.015605 -0.011630
  6O   2s        -0.036660  0.151049 -0.334487 -0.051970  0.030037 -0.022385
  6O   3s        -0.025786  0.104078 -0.230473 -0.063629  0.052397 -0.039048
  6O   1pz       -0.001936  0.008450 -0.018711  0.242173 -0.280231  0.208840
  6O   1px        0.002393 -0.000000 -0.000000 -0.000000 -0.000000 -0.000000
  6O   1py       -0.001940  0.000000  0.000000 -0.000000  0.000000  0.000000
  6O   2pz       -0.001321  0.002813 -0.006229  0.152213 -0.169203  0.126097
  6O   2px       -0.000032 -0.000000  0.000000 -0.000000 -0.000000 -0.000000
  6O   2py        0.000026 -0.000000 -0.000000 -0.000000  0.000000  0.000000
  6O   1dz2      -0.000222  0.000713 -0.001578  0.003973 -0.004457  0.003322
  6O   1dxz       0.000194 -0.000000 -0.000000 -0.000000 -0.000000 -0.000000
  6O   1dyz      -0.000157  0.000000 -0.000000 -0.000000  0.000000  0.000000
  6O   1dx2y2    -0.000000 -0.000243 -0.000110 -0.000000 -0.000507 -0.000681
  6O   1dxy      -0.000000 -0.000000  0.000000 -0.000000  0.000000  0.000000
                     24        25        26        27        28        29   
                  -0.38233  -0.38233  -0.38233  -0.37859  -0.37859  -0.37859
                   1.00000   1.00000   1.00000   1.00000   1.00000   1.00000
                  --------  --------  --------  --------  --------  --------
  0Cr  1s         0.000000 -0.000000 -0.000000 -0.000000 -0.000000  0.000000
  0Cr  2s        -0.000000  0.000000  0.000000  0.000000  0.000000 -0.000000
  0Cr  3s         0.000000 -0.000000 -0.000000 -0.000000 -0.000000  0.000000
  0Cr  4s        -0.000000  0.000000  0.000000  0.000000  0.000000 -0.000000
  0Cr  5s        -0.000000  0.000000  0.000000 -0.000000 -0.000000  0.000000
  0Cr  1pz       -0.000852  0.003125  0.046931 -0.000000  0.000000  0.000000
  0Cr  1px       -0.047019  0.001139 -0.000930 -0.000000 -0.000000  0.000000
  0Cr  1py        0.001198  0.046924 -0.003103 -0.000000  0.000000 -0.000000
  0Cr  2pz        0.002709 -0.009932 -0.149165  0.000000 -0.000000 -0.000000
  0Cr  2px        0.149447 -0.003619  0.002955  0.000000  0.000000 -0.000000
  0Cr  2py       -0.003807 -0.149146  0.009862  0.000000 -0.000000  0.000000
  0Cr  1dz2      -0.000000  0.000000  0.000000  0.000000 -0.000000  0.000000
  0Cr  1dxz      -0.000000 -0.000000  0.000000  0.043069 -0.099596 -0.160733
  0Cr  1dyz      -0.000000  0.000000  0.000000  0.165387 -0.060069  0.081537
  0Cr  1dx2y2     0.000000  0.000000  0.000000 -0.000000 -0.000000 -0.000000
  0Cr  1dxy       0.000000  0.000000  0.000000 -0.091661 -0.155183  0.071596
  0Cr  2dz2       0.000000 -0.000000  0.000000  0.000000 -0.000000  0.000000
  0Cr  2dxz      -0.000000 -0.000000  0.000000  0.029353 -0.067879 -0.109547
  0Cr  2dyz      -0.000000  0.000000  0.000000  0.112719 -0.040940  0.055571
  0Cr  2dx2y2    -0.000000 -0.000000  0.000000 -0.000000 -0.000000 -0.000000
  0Cr  2dxy       0.000000  0.000000  0.000000 -0.062471 -0.105764  0.048796
  0Cr  3pz       -0.003636  0.013332  0.200223 -0.000000  0.000000  0.000000
  0Cr  3px       -0.200601  0.004858 -0.003966 -0.000000 -0.000000  0.000000
  0Cr  3py        0.005110  0.200197 -0.013237 -0.000000  0.000000 -0.000000
  0Cr  1f0       -0.000042  0.000156  0.002337 -0.000000  0.000000  0.000000
  0Cr  1f+1       0.001434 -0.000035  0.000028  0.000000 -0.000000 -0.000000
  0Cr  1f-1      -0.000037 -0.001431  0.000095  0.000000 -0.000000  0.000000
  0Cr  1f+2       0.000000  0.000000  0.000000 -0.000000 -0.000000 -0.000000
  0Cr  1f-2       0.000000  0.000000 -0.000000  0.000000 -0.000000  0.000000
  0Cr  1f+3       0.001851 -0.000045  0.000037  0.000000 -0.000000  0.000000
  0Cr  1f-3       0.000047  0.001847 -0.000122 -0.000000  0.000000 -0.000000
  1O   1s        -0.023518  0.000570 -0.000465 -0.000000 -0.000000  0.000000
  1O   2s        -0.047689  0.001155 -0.000943  0.000000  0.000000  0.000000
  1O   3s        -0.080104  0.001940 -0.001584 -0.000000 -0.000000  0.000000
  1O   1pz       -0.003192  0.011705  0.175796 -0.067805  0.156799  0.253050
  1O   1px        0.374645 -0.009073  0.007408  0.000000  0.000000 -0.000000
  1O   1py        0.004486  0.175773 -0.011622  0.144306  0.244312 -0.112718
  1O   2pz       -0.002065  0.007570  0.113696 -0.047307  0.109397  0.176550
  1O   2px        0.234738 -0.005685  0.004641  0.000000  0.000000 -0.000000
  1O   2py        0.002902  0.113681 -0.007517  0.100680  0.170454 -0.078642
  1O   1dz2      -0.002219  0.000054 -0.000044 -0.000000  0.000000 -0.000000
  1O   1dxz      -0.000051  0.000189  0.002832 -0.001030  0.002383  0.003846
  1O   1dyz       0.000000  0.000000 -0.000000  0.000556 -0.000202  0.000274
  1O   1dx2y2     0.003843 -0.000093  0.000076  0.000000  0.000000 -0.000000
  1O   1dxy       0.000072  0.002832 -0.000187  0.002193  0.003713 -0.001713
  2O   1s         0.023518 -0.000570  0.000465  0.000000  0.000000  0.000000
  2O   2s         0.047689 -0.001155  0.000943 -0.000000  0.000000  0.000000
  2O   3s         0.080104 -0.001940  0.001584  0.000000  0.000000  0.000000
  2O   1pz       -0.003192  0.011705  0.175796  0.067805 -0.156799 -0.253050
  2O   1px        0.374645 -0.009073  0.007408  0.000000  0.000000  0.000000
  2O   1py        0.004486  0.175773 -0.011622 -0.144306 -0.244312  0.112718
  2O   2pz       -0.002065  0.007570  0.113696  0.047307 -0.109397 -0.176550
  2O   2px        0.234738 -0.005685  0.004641  0.000000  0.000000  0.000000
  2O   2py        0.002902  0.113681 -0.007517 -0.100680 -0.170454  0.078642
  2O   1dz2       0.002219 -0.000054  0.000044  0.000000  0.000000  0.000000
  2O   1dxz       0.000051 -0.000189 -0.002832 -0.001030  0.002383  0.003846
  2O   1dyz       0.000000 -0.000000  0.000000  0.000556 -0.000202  0.000274
  2O   1dx2y2    -0.003843  0.000093 -0.000076 -0.000000 -0.000000 -0.000000
  2O   1dxy      -0.000072 -0.002832  0.000187  0.002193  0.003713 -0.001713
  3O   1s         0.000599  0.023470 -0.001552 -0.000000  0.000000 -0.000000
  3O   2s         0.001215  0.047593 -0.003147 -0.000000  0.000000 -0.000000
  3O   3s         0.002040  0.079943 -0.005286  0.000000  0.000000 -0.000000
  3O   1pz       -0.003192  0.011705  0.175796 -0.260377  0.094570 -0.128368
  3O   1px       -0.176128  0.004265 -0.003483  0.144306  0.244312 -0.112718
  3O   1py       -0.009543 -0.373891  0.024722  0.000000 -0.000000  0.000000
  3O   2pz       -0.002065  0.007570  0.113696 -0.181662  0.065980 -0.089561
  3O   2px       -0.113911  0.002759 -0.002252  0.100680  0.170454 -0.078642
  3O   2py       -0.005979 -0.234265  0.015490  0.000000 -0.000000  0.000000
  3O   1dz2       0.000057  0.002214 -0.000146 -0.000000  0.000000 -0.000000
  3O   1dxz      -0.000000  0.000000 -0.000000  0.000145 -0.000335 -0.000541
  3O   1dyz      -0.000051  0.000189  0.002832 -0.003957  0.001437 -0.001951
  3O   1dx2y2     0.000098  0.003835 -0.000254 -0.000000  0.000000 -0.000000
  3O   1dxy      -0.002838  0.000069 -0.000056  0.002193  0.003713 -0.001713
  4O   1s        -0.000599 -0.023470  0.001552  0.000000 -0.000000  0.000000
  4O   2s        -0.001215 -0.047593  0.003147  0.000000 -0.000000  0.000000
  4O   3s        -0.002040 -0.079943  0.005286  0.000000 -0.000000 -0.000000
  4O   1pz       -0.003192  0.011705  0.175796  0.260377 -0.094570  0.128368
  4O   1px       -0.176128  0.004265 -0.003483 -0.144306 -0.244312  0.112718
  4O   1py       -0.009543 -0.373891  0.024722  0.000000 -0.000000  0.000000
  4O   2pz       -0.002065  0.007570  0.113696  0.181662 -0.065980  0.089561
  4O   2px       -0.113911  0.002759 -0.002252 -0.100680 -0.170454  0.078642
  4O   2py       -0.005979 -0.234265  0.015490  0.000000 -0.000000  0.000000
  4O   1dz2      -0.000057 -0.002214  0.000146  0.000000 -0.000000  0.000000
  4O   1dxz      -0.000000  0.000000 -0.000000  0.000145 -0.000335 -0.000541
  4O   1dyz       0.000051 -0.000189 -0.002832 -0.003957  0.001437 -0.001951
  4O   1dx2y2    -0.000098 -0.003835  0.000254  0.000000 -0.000000  0.000000
  4O   1dxy       0.002838 -0.000069  0.000056  0.002193  0.003713 -0.001713
  5O   1s         0.000426 -0.001563 -0.023473  0.000000 -0.000000 -0.000000
  5O   2s         0.000864 -0.003169 -0.047599  0.000000 -0.000000 -0.000000
  5O   3s         0.001452 -0.005324 -0.079953 -0.000000 -0.000000 -0.000000
  5O   1pz        0.006791 -0.024899 -0.373939  0.000000 -0.000000 -0.000000
  5O   1px       -0.176128  0.004265 -0.003483  0.067805 -0.156799 -0.253050
  5O   1py        0.004486  0.175773 -0.011622  0.260377 -0.094570  0.128368
  5O   2pz        0.004255 -0.015600 -0.234296  0.000000 -0.000000  0.000000
  5O   2px       -0.113911  0.002759 -0.002252  0.047307 -0.109397 -0.176550
  5O   2py        0.002902  0.113681 -0.007517  0.181662 -0.065980  0.089561
  5O   1dz2      -0.000080  0.000295  0.004429 -0.000000  0.000000  0.000000
  5O   1dxz       0.002838 -0.000069  0.000056 -0.001030  0.002383  0.003846
  5O   1dyz      -0.000072 -0.002832  0.000187 -0.003957  0.001437 -0.001951
  5O   1dx2y2     0.000000  0.000000 -0.000000  0.000000 -0.000000 -0.000000
  5O   1dxy       0.000000  0.000000  0.000000 -0.000308 -0.000522  0.000241
  6O   1s        -0.000426  0.001563  0.023473 -0.000000  0.000000 -0.000000
  6O   2s        -0.000864  0.003169  0.047599 -0.000000  0.000000 -0.000000
  6O   3s        -0.001452  0.005324  0.079953 -0.000000  0.000000  0.000000
  6O   1pz        0.006791 -0.024899 -0.373939  0.000000 -0.000000  0.000000
  6O   1px       -0.176128  0.004265 -0.003483 -0.067805  0.156799  0.253050
  6O   1py        0.004486  0.175773 -0.011622 -0.260377  0.094570 -0.128368
  6O   2pz        0.004255 -0.015600 -0.234296  0.000000 -0.000000  0.000000
  6O   2px       -0.113911  0.002759 -0.002252 -0.047307  0.109397  0.176550
  6O   2py        0.002902  0.113681 -0.007517 -0.181662  0.065980 -0.089561
  6O   1dz2       0.000080 -0.000295 -0.004429  0.000000 -0.000000  0.000000
  6O   1dxz      -0.002838  0.000069 -0.000056 -0.001030  0.002383  0.003846
  6O   1dyz       0.000072  0.002832 -0.000187 -0.003957  0.001437 -0.001951
  6O   1dx2y2     0.000000  0.000000  0.000000  0.000000 -0.000000 -0.000000
  6O   1dxy       0.000000  0.000000  0.000000 -0.000308 -0.000522  0.000241
                     30        31        32        33        34        35   
                  -0.34693  -0.34693  -0.34693  -0.34568  -0.34568  -0.34568
                   1.00000   1.00000   1.00000   1.00000   1.00000   1.00000
                  --------  --------  --------  --------  --------  --------
  0Cr  1s         0.000000  0.000000  0.000000  0.000000  0.000000 -0.000000
  0Cr  2s        -0.000000 -0.000000 -0.000000 -0.000000 -0.000000  0.000000
  0Cr  3s         0.000000  0.000000  0.000000  0.000000  0.000000 -0.000000
  0Cr  4s        -0.000000 -0.000000 -0.000000 -0.000000 -0.000000  0.000000
  0Cr  5s         0.000000  0.000000  0.000000  0.000000 -0.000000  0.000000
  0Cr  1pz        0.000000 -0.000000  0.000000  0.004796 -0.002572  0.007033
  0Cr  1px       -0.000000  0.000000 -0.000000  0.005007 -0.005108 -0.005283
  0Cr  1py       -0.000000  0.000000 -0.000000 -0.005568 -0.006810  0.001307
  0Cr  2pz       -0.000000  0.000000 -0.000000 -0.014306  0.007671 -0.020976
  0Cr  2px        0.000000  0.000000  0.000000 -0.014935  0.015236  0.015758
  0Cr  2py        0.000000 -0.000000  0.000000  0.016606  0.020311 -0.003898
  0Cr  1dz2      -0.000000 -0.000000 -0.000000 -0.000000  0.000000 -0.000000
  0Cr  1dxz       0.000000 -0.000000  0.000000  0.000000 -0.000000 -0.000000
  0Cr  1dyz      -0.000000  0.000000  0.000000 -0.000000 -0.000000 -0.000000
  0Cr  1dx2y2     0.000000  0.000000  0.000000 -0.000000 -0.000000 -0.000000
  0Cr  1dxy       0.000000 -0.000000  0.000000 -0.000000 -0.000000 -0.000000
  0Cr  2dz2      -0.000000  0.000000 -0.000000  0.000000  0.000000  0.000000
  0Cr  2dxz       0.000000 -0.000000 -0.000000  0.000000 -0.000000 -0.000000
  0Cr  2dyz       0.000000  0.000000  0.000000 -0.000000 -0.000000 -0.000000
  0Cr  2dx2y2    -0.000000  0.000000  0.000000  0.000000 -0.000000 -0.000000
  0Cr  2dxy       0.000000 -0.000000  0.000000 -0.000000 -0.000000 -0.000000
  0Cr  3pz        0.000000  0.000000 -0.000000 -0.025423  0.013631 -0.037275
  0Cr  3px        0.000000 -0.000000  0.000000 -0.026541  0.027074  0.028003
  0Cr  3py       -0.000000 -0.000000 -0.000000  0.029510  0.036094 -0.006928
  0Cr  1f0        0.000000 -0.000000  0.000000  0.003548 -0.001903  0.005203
  0Cr  1f+1      -0.001740  0.003029 -0.000663 -0.002268  0.002314  0.002393
  0Cr  1f-1       0.002969  0.001409 -0.001357  0.002522  0.003085 -0.000592
  0Cr  1f+2       0.001130  0.001540  0.004072  0.000000  0.000000 -0.000000
  0Cr  1f-2       0.000000  0.000000 -0.000000  0.000000  0.000000 -0.000000
  0Cr  1f+3       0.001348 -0.002346  0.000513 -0.002929  0.002987  0.003090
  0Cr  1f-3       0.002300  0.001091 -0.001051 -0.003256 -0.003983  0.000764
  1O   1s        -0.000000  0.000000  0.000000 -0.000454  0.000463  0.000479
  1O   2s        -0.000000  0.000000 -0.000000 -0.001235  0.001259  0.001303
  1O   3s         0.000000 -0.000000  0.000000 -0.006164  0.006287  0.006503
  1O   1pz        0.085569  0.116603  0.308284 -0.151681  0.081327 -0.222395
  1O   1px        0.000000 -0.000000  0.000000 -0.157242  0.160402  0.165902
  1O   1py       -0.284372 -0.134911  0.129959  0.176064  0.215346 -0.041333
  1O   2pz        0.058926  0.080297  0.212295 -0.101863  0.054616 -0.149351
  1O   2px        0.000000 -0.000000  0.000000 -0.113460  0.115741  0.119709
  1O   2py       -0.195828 -0.092904  0.089494  0.118238  0.144618 -0.027757
  1O   1dz2       0.000476 -0.000828  0.000181  0.001137 -0.001160 -0.001200
  1O   1dxz       0.000778  0.001060  0.002801 -0.001180  0.000633 -0.001730
  1O   1dyz       0.000000  0.000000  0.000000  0.000000  0.000000 -0.000000
  1O   1dx2y2     0.000275 -0.000478  0.000105 -0.001970  0.002010  0.002078
  1O   1dxy      -0.002584 -0.001226  0.001181  0.001370  0.001675 -0.000322
  2O   1s        -0.000000 -0.000000 -0.000000  0.000454 -0.000463 -0.000479
  2O   2s        -0.000000 -0.000000 -0.000000  0.001235 -0.001259 -0.001303
  2O   3s         0.000000  0.000000  0.000000  0.006164 -0.006287 -0.006503
  2O   1pz        0.085569  0.116603  0.308284 -0.151681  0.081327 -0.222395
  2O   1px        0.000000 -0.000000  0.000000 -0.157242  0.160402  0.165902
  2O   1py       -0.284372 -0.134911  0.129959  0.176064  0.215346 -0.041333
  2O   2pz        0.058926  0.080297  0.212295 -0.101863  0.054616 -0.149351
  2O   2px        0.000000 -0.000000  0.000000 -0.113460  0.115741  0.119709
  2O   2py       -0.195828 -0.092904  0.089494  0.118238  0.144618 -0.027757
  2O   1dz2      -0.000476  0.000828 -0.000181 -0.001137  0.001160  0.001200
  2O   1dxz      -0.000778 -0.001060 -0.002801  0.001180 -0.000633  0.001730
  2O   1dyz       0.000000  0.000000 -0.000000  0.000000 -0.000000 -0.000000
  2O   1dx2y2    -0.000275  0.000478 -0.000105  0.001970 -0.002010 -0.002078
  2O   1dxy       0.002584  0.001226 -0.001181 -0.001370 -0.001675  0.000322
  3O   1s        -0.000000 -0.000000  0.000000  0.000505  0.000618 -0.000119
  3O   2s         0.000000 -0.000000  0.000000  0.001373  0.001679 -0.000322
  3O   3s        -0.000000 -0.000000 -0.000000  0.006853  0.008382 -0.001609
  3O   1pz       -0.085569 -0.116603 -0.308284 -0.151681  0.081327 -0.222395
  3O   1px        0.166638 -0.290104  0.063474 -0.158351  0.161533  0.167072
  3O   1py        0.000000 -0.000000 -0.000000  0.174831  0.213838 -0.041043
  3O   2pz       -0.058926 -0.080297 -0.212295 -0.101863  0.054616 -0.149351
  3O   2px        0.114752 -0.199776  0.043710 -0.106342  0.108479  0.112199
  3O   2py        0.000000 -0.000000 -0.000000  0.126153  0.154298 -0.029615
  3O   1dz2      -0.000812 -0.000385  0.000371 -0.001265 -0.001547  0.000297
  3O   1dxz      -0.000000  0.000000  0.000000  0.000000  0.000000  0.000000
  3O   1dyz      -0.000778 -0.001060 -0.002801 -0.001180  0.000633 -0.001730
  3O   1dx2y2     0.000469  0.000222 -0.000214 -0.002190 -0.002679  0.000514
  3O   1dxy       0.001514 -0.002636  0.000577 -0.001232  0.001257  0.001300
  4O   1s         0.000000 -0.000000  0.000000 -0.000505 -0.000618  0.000119
  4O   2s         0.000000 -0.000000 -0.000000 -0.001373 -0.001679  0.000322
  4O   3s         0.000000  0.000000  0.000000 -0.006853 -0.008382  0.001609
  4O   1pz       -0.085569 -0.116603 -0.308284 -0.151681  0.081327 -0.222395
  4O   1px        0.166638 -0.290104  0.063474 -0.158351  0.161533  0.167072
  4O   1py        0.000000 -0.000000 -0.000000  0.174831  0.213838 -0.041043
  4O   2pz       -0.058926 -0.080297 -0.212295 -0.101863  0.054616 -0.149351
  4O   2px        0.114752 -0.199776  0.043710 -0.106342  0.108479  0.112199
  4O   2py        0.000000 -0.000000 -0.000000  0.126153  0.154298 -0.029615
  4O   1dz2       0.000812  0.000385 -0.000371  0.001265  0.001547 -0.000297
  4O   1dxz       0.000000 -0.000000  0.000000  0.000000  0.000000  0.000000
  4O   1dyz       0.000778  0.001060  0.002801  0.001180 -0.000633  0.001730
  4O   1dx2y2    -0.000469 -0.000222  0.000214  0.002190  0.002679 -0.000514
  4O   1dxy      -0.001514  0.002636 -0.000577  0.001232 -0.001257 -0.001300
  5O   1s        -0.000000  0.000000  0.000000  0.000435 -0.000233  0.000638
  5O   2s        -0.000000  0.000000  0.000000  0.001183 -0.000634  0.001734
  5O   3s         0.000000 -0.000000  0.000000  0.005904 -0.003166  0.008656
  5O   1pz       -0.000000  0.000000 -0.000000 -0.150619  0.080758 -0.220837
  5O   1px       -0.166638  0.290104 -0.063474 -0.158351  0.161533  0.167072
[...]
 5 O  s               0.0       0.0       0.0       0.0       0.0       0.8
 5 O  pz              0.0       0.0       0.0       0.0       0.0       0.4
 5 O  dz2             3.9       0.0       0.0       0.0       0.0      19.4
 5 O  dxz             0.0      31.9      31.2       0.7       0.0       0.0
 5 O  dyz             0.0      11.5      11.8       0.0       0.4       0.0
 5 O  dx2y2          11.7       0.0       0.0       0.0       0.0       0.1
 5 O  dxy            33.6       0.0       0.0       0.0       0.0       0.3
 6 O  s               0.0       0.0       0.0       0.0       0.0       0.8
 6 O  pz              0.0       0.0       0.0       0.0       0.0       0.4
 6 O  dz2             3.9       0.0       0.0       0.0       0.0      19.4
 6 O  dxz             0.0      31.9      31.2       0.7       0.0       0.0
 6 O  dyz             0.0      11.5      11.8       0.0       0.4       0.0
 6 O  dx2y2          11.7       0.0       0.0       0.0       0.0       0.1
 6 O  dxy            33.6       0.0       0.0       0.0       0.0       0.3

                     90        91        92        93        94        95   
                   4.79553   4.80682   4.81804   4.81861   4.81941   4.82135
                   0.00000   0.00000   0.00000   0.00000   0.00000   0.00000
                  --------  --------  --------  --------  --------  --------
 0 Cr f+2             2.6       0.0       0.0       0.0       0.0       0.0
 1 O  dz2             0.0       0.0       0.0       0.0      37.0      20.0
 1 O  dxz            25.2       0.0       0.0       0.0       0.0       0.0
 1 O  dyz             0.0       0.0      47.2      50.0       0.0       0.0
 1 O  dx2y2           0.0       0.0       0.0       0.0      13.0       5.6
 1 O  dxy             0.0      25.7       0.0       0.0       0.0       0.0
 2 O  dz2             0.0       0.0       0.0       0.0      37.0      20.0
 2 O  dxz            25.2       0.0       0.0       0.0       0.0       0.0
 2 O  dyz             0.0       0.0      47.2      50.0       0.0       0.0
 2 O  dx2y2           0.0       0.0       0.0       0.0      13.0       5.6
 2 O  dxy             0.0      25.7       0.0       0.0       0.0       0.0
 3 O  dz2             0.0       0.0       0.0       0.0       0.0      21.3
 3 O  dyz            23.5       0.0       2.8       0.0       0.0       0.0
 3 O  dx2y2           0.0       0.0       0.0       0.0       0.0       2.7
 3 O  dxy             0.0      24.3       0.0       0.0       0.0       0.0
 4 O  dz2             0.0       0.0       0.0       0.0       0.0      21.3
 4 O  dyz            23.5       0.0       2.8       0.0       0.0       0.0
 4 O  dx2y2           0.0       0.0       0.0       0.0       0.0       2.7
 4 O  dxy             0.0      24.3       0.0       0.0       0.0       0.0
 5 O  dz2             0.0       0.0       0.0       0.0       0.0       0.3
 6 O  dz2             0.0       0.0       0.0       0.0       0.0       0.3

                     96        97        98        99       100       101   
                   4.82246   4.82359   4.82443   4.83969   4.87631   4.88064
                   0.00000   0.00000   0.00000   0.00000   0.00000   0.00000
                  --------  --------  --------  --------  --------  --------
 0 Cr s               0.0       0.0       0.0       1.5       0.0       0.0
 0 Cr px              0.0       0.0       0.0       0.0       0.0       1.1
 0 Cr py              0.0       0.0       0.0       0.0       1.1       0.0
 0 Cr dz2             0.0       0.0       0.0       0.3       0.0       0.0
 0 Cr f+1             0.0       0.0       0.0       0.0       0.3       9.1
 0 Cr f-1             0.0       0.0       0.0       0.0       9.1       0.3
 0 Cr f+3             0.0       0.0       0.0       0.0       0.1       3.2
 0 Cr f-3             0.0       0.0       0.0       0.0       3.4       0.1
 1 O  s               0.0       0.0       0.0       0.2       0.0       0.4
 1 O  py              0.0       0.0       0.0       0.0       0.1       0.0
 1 O  dz2             0.0       0.0       0.0       1.7       0.0       0.4
 1 O  dxz             3.2       0.0       0.0       0.0       0.0       0.0
 1 O  dx2y2           0.0       0.0       0.0      15.9       0.0       1.6
 1 O  dxy             0.0       0.0       0.0       0.0      35.7       1.0
 2 O  s               0.0       0.0       0.0       0.2       0.0       0.4
 2 O  py              0.0       0.0       0.0       0.0       0.1       0.0
 2 O  dz2             0.0       0.0       0.0       1.7       0.0       0.4
 2 O  dxz             3.2       0.0       0.0       0.0       0.0       0.0
 2 O  dx2y2           0.0       0.0       0.0      15.9       0.0       1.6
 2 O  dxy             0.0       0.0       0.0       0.0      35.7       1.0
 3 O  s               0.0       0.0       0.0       0.2       0.4       0.0
 3 O  px              0.0       0.0       0.0       0.0       0.0       0.1
 3 O  dz2             0.0       0.0      37.1       4.7       0.5       0.0
 3 O  dxz            46.8      50.0       0.0       0.0       0.0       0.0
 3 O  dx2y2           0.0       0.0      12.9      18.5       1.9       0.1
 3 O  dxy             0.0       0.0       0.0       0.0       1.1      35.9
 4 O  s               0.0       0.0       0.0       0.2       0.4       0.0
 4 O  px              0.0       0.0       0.0       0.0       0.0       0.1
 4 O  dz2             0.0       0.0      37.1       4.7       0.5       0.0
 4 O  dxz            46.8      50.0       0.0       0.0       0.0       0.0
 4 O  dx2y2           0.0       0.0      12.9      18.5       1.9       0.1
 4 O  dxy             0.0       0.0       0.0       0.0       1.1      35.9
 5 O  s               0.0       0.0       0.0       0.4       0.0       0.0
 5 O  pz              0.0       0.0       0.0       0.2       0.0       0.0
 5 O  px              0.0       0.0       0.0       0.0       0.0       0.1
 5 O  py              0.0       0.0       0.0       0.0       0.1       0.0
 5 O  dz2             0.0       0.0       0.0       7.0       0.0       0.0
 5 O  dxz             0.0       0.0       0.0       0.0       0.0       3.4
 5 O  dyz             0.0       0.0       0.0       0.0       3.0       0.2
 6 O  s               0.0       0.0       0.0       0.4       0.0       0.0
 6 O  pz              0.0       0.0       0.0       0.2       0.0       0.0
 6 O  px              0.0       0.0       0.0       0.0       0.0       0.1
 6 O  py              0.0       0.0       0.0       0.0       0.1       0.0
 6 O  dz2             0.0       0.0       0.0       7.0       0.0       0.0
 6 O  dxz             0.0       0.0       0.0       0.0       0.0       3.4
 6 O  dyz             0.0       0.0       0.0       0.0       3.0       0.2

                    102       103       104       105       106       107   
                   4.91081   4.91575   4.91902   4.96809   5.07174   5.07235
                   0.00000   0.00000   0.00000   0.00000   0.00000   0.00000
                  --------  --------  --------  --------  --------  --------
 0 Cr pz              1.4       0.0       0.0       0.0       0.0       0.0
 0 Cr dxz             0.0       2.3       0.4       0.0       0.0       0.0
 0 Cr dyz             0.0       0.4       2.2       0.0       0.0       0.0
 0 Cr dxy             0.0       0.0       0.0       3.1       0.0       0.0
 0 Cr f0              9.7       0.0       0.0       0.0       0.0       0.0
 0 Cr f+1             0.0       0.0       0.0       0.0      34.4      26.3
 0 Cr f-1             0.0       0.0       0.0       0.0      26.4      34.3
 0 Cr f+3             0.0       0.0       0.0       0.0      20.5      15.9
 0 Cr f-3             0.0       0.0       0.0       0.0      15.8      20.7
 1 O  pz              0.1       0.1       0.0       0.0       0.0       0.0
 1 O  py              0.0       0.0       0.0       0.2       0.0       0.0
 1 O  dxz            20.9      33.8       5.9       0.0       0.0       0.0
 1 O  dyz             0.0       0.4       2.1       0.0       0.0       0.0
 1 O  dxy             0.0       0.0       0.0      23.2       0.5       0.6
 2 O  pz              0.1       0.1       0.0       0.0       0.0       0.0
 2 O  py              0.0       0.0       0.0       0.2       0.0       0.0
 2 O  dxz            20.9      33.8       5.9       0.0       0.0       0.0
 2 O  dyz             0.0       0.4       2.1       0.0       0.0       0.0
 2 O  dxy             0.0       0.0       0.0      23.2       0.5       0.6
 3 O  pz              0.1       0.0       0.1       0.0       0.0       0.0
 3 O  px              0.0       0.0       0.0       0.2       0.0       0.0
 3 O  dxz             0.0       2.5       0.4       0.0       0.0       0.0
 3 O  dyz            22.5       6.4      34.5       0.0       0.0       0.0
 3 O  dxy             0.0       0.0       0.0      24.6       0.7       0.5
 4 O  pz              0.1       0.0       0.1       0.0       0.0       0.0
 4 O  px              0.0       0.0       0.0       0.2       0.0       0.0
 4 O  dxz             0.0       2.5       0.4       0.0       0.0       0.0
 4 O  dyz            22.5       6.4      34.5       0.0       0.0       0.0
 4 O  dxy             0.0       0.0       0.0      24.6       0.7       0.5
 5 O  s               0.4       0.0       0.0       0.0       0.0       0.0
 5 O  dz2             0.3       0.0       0.0       0.0       0.0       0.0
 5 O  dxz             0.0       4.7       1.1       0.0       0.1       0.0
 5 O  dyz             0.0       0.6       4.4       0.0       0.0       0.1
 5 O  dxy             0.0       0.0       0.0       0.3       0.0       0.0
 6 O  s               0.4       0.0       0.0       0.0       0.0       0.0
 6 O  dz2             0.3       0.0       0.0       0.0       0.0       0.0
 6 O  dxz             0.0       4.7       1.1       0.0       0.1       0.0
 6 O  dyz             0.0       0.6       4.4       0.0       0.0       0.1
 6 O  dxy             0.0       0.0       0.0       0.3       0.0       0.0

                    108       109       110       111       112       113   
                   5.07399   5.07688   5.16862   5.22598   5.26183   5.27397
                   0.00000   0.00000   0.00000   0.00000   0.00000   0.00000
                  --------  --------  --------  --------  --------  --------
 0 Cr s               0.0       0.0       0.2       0.0       0.0       0.0
 0 Cr pz              0.0       0.0       0.0       2.0       0.0       0.0
 0 Cr px              0.0       0.0       0.0       0.0       0.0       2.0
 0 Cr dz2             0.0       0.0       7.7       0.0       0.0       0.0
 0 Cr dx2y2           0.0       0.0       0.0       0.0       7.7       0.0
 0 Cr f0              0.0       0.0       0.0      77.7       0.0       0.0
 0 Cr f+1             0.0       0.0       0.0       0.0       0.0      23.9
 0 Cr f+2            97.1       0.0       0.0       0.0       0.0       0.0
 0 Cr f-2             0.0      99.9       0.0       0.0       0.0       0.0
 0 Cr f+3             0.0       0.0       0.0       0.0       0.0      48.1
 0 Cr f-3             0.0       0.0       0.0       0.0       0.0       0.2
 1 O  s               0.0       0.0       0.7       0.0       1.4       2.1
 1 O  px              0.0       0.0       0.4       0.0       0.8       1.1
 1 O  dz2             0.0       0.0       7.1       0.0       3.2       2.0
 1 O  dxz             0.6       0.0       0.0       1.2       0.0       0.0
 1 O  dx2y2           0.0       0.0       6.3       0.0      16.9       6.0
 2 O  s               0.0       0.0       0.7       0.0       1.4       2.1
 2 O  px              0.0       0.0       0.4       0.0       0.8       1.1
 2 O  dz2             0.0       0.0       7.1       0.0       3.2       2.0
 2 O  dxz             0.6       0.0       0.0       1.2       0.0       0.0
 2 O  dx2y2           0.0       0.0       6.3       0.0      16.9       6.0
 3 O  s               0.0       0.0       0.7       0.0       1.4       0.0
 3 O  py              0.0       0.0       0.4       0.0       0.8       0.0
 3 O  dz2             0.0       0.0       7.0       0.0       3.4       0.0
 3 O  dyz             0.7       0.0       0.0       1.3       0.0       0.0
 3 O  dx2y2           0.0       0.0       5.8       0.0      17.7       0.0
 3 O  dxy             0.0       0.0       0.0       0.0       0.0       1.1
 4 O  s               0.0       0.0       0.7       0.0       1.4       0.0
 4 O  py              0.0       0.0       0.4       0.0       0.8       0.0
 4 O  dz2             0.0       0.0       7.0       0.0       3.4       0.0
 4 O  dyz             0.7       0.0       0.0       1.3       0.0       0.0
 4 O  dx2y2           0.0       0.0       5.8       0.0      17.7       0.0
 4 O  dxy             0.0       0.0       0.0       0.0       0.0       1.1
 5 O  s               0.0       0.0       1.3       1.9       0.0       0.0
 5 O  pz              0.0       0.0       0.8       1.0       0.0       0.0
 5 O  dz2             0.0       0.0      15.6       4.6       0.0       0.0
 5 O  dxz             0.0       0.0       0.0       0.0       0.0       0.6
 5 O  dx2y2           0.0       0.0       0.0       0.0       0.5       0.0
 6 O  s               0.0       0.0       1.3       1.9       0.0       0.0
 6 O  pz              0.0       0.0       0.8       1.0       0.0       0.0
 6 O  dz2             0.0       0.0      15.6       4.6       0.0       0.0
 6 O  dxz             0.0       0.0       0.0       0.0       0.0       0.6
 6 O  dx2y2           0.0       0.0       0.0       0.0       0.5       0.0

                    114   
                   5.27538
                   0.00000
                  --------
 0 Cr py              2.0
 0 Cr f-1            24.0
 0 Cr f+3             0.1
 0 Cr f-3            47.8
 1 O  dxy             1.0
 2 O  dxy             1.0
 3 O  s               2.1
 3 O  py              1.1
 3 O  dz2             2.0
 3 O  dx2y2           6.1
 4 O  s               2.1
 4 O  py              1.1
 4 O  dz2             2.0
 4 O  dx2y2           6.1
 5 O  dyz             0.5
 6 O  dyz             0.5


                      *****************************
                      * MAYER POPULATION ANALYSIS *
                      *****************************

  NA   - Mulliken gross atomic population
  ZA   - Total nuclear charge
  QA   - Mulliken gross atomic charge
  VA   - Mayer's total valence
  BVA  - Mayer's bonded valence
  FA   - Mayer's free valence

  ATOM       NA         ZA         QA         VA         BVA        FA
  0 Cr    24.6380    24.0000    -0.6380     5.4318     2.5238     2.9080
  1 O      9.6298     8.0000    -1.6298     0.6051     0.6031     0.0020
  2 O      9.6298     8.0000    -1.6298     0.6051     0.6031     0.0020
  3 O      9.6353     8.0000    -1.6353     0.5944     0.5922     0.0022
  4 O      9.6353     8.0000    -1.6353     0.5944     0.5922     0.0022
  5 O      8.9160     8.0000    -0.9160     1.1376     0.1565     0.9811
  6 O      8.9160     8.0000    -0.9160     1.1376     0.1565     0.9811

  Mayer bond orders larger than 0.100000
B(  0-Cr,  1-O ) :   0.5681 B(  0-Cr,  2-O ) :   0.5681 B(  0-Cr,  3-O ) :   0.5687 
B(  0-Cr,  4-O ) :   0.5687 B(  0-Cr,  5-O ) :   0.1251 B(  0-Cr,  6-O ) :   0.1251 


Environment variable NBOEXE for nbo6.exe or nbo5.exe not set! Skipping NBO-Analysis

-------
TIMINGS
-------

Total SCF time: 0 days 0 hours 0 min 11 sec 

Total time                  ....      11.448 sec
Sum of individual times     ....      11.083 sec  ( 96.8%)

Fock matrix formation       ....      10.230 sec  ( 89.4%)
Diagonalization             ....       0.232 sec  (  2.0%)
Density matrix formation    ....       0.007 sec  (  0.1%)
Population analysis         ....       0.338 sec  (  3.0%)
Initial guess               ....       0.081 sec  (  0.7%)
Orbital Transformation      ....       0.006 sec  (  0.1%)
Orbital Orthonormalization  ....       0.000 sec  (  0.0%)
DIIS solution               ....       0.130 sec  (  1.1%)

Maximum memory used throughout the entire SCF-calculation: 227.0 MB

-------------------------   --------------------
FINAL SINGLE POINT ENERGY     -1485.508269728912
-------------------------   --------------------


                            ***************************************
                            *     ORCA property calculations      *
                            ***************************************

                                    ---------------------
                                    Active property flags
                                    ---------------------
   (+) Dipole Moment


------------------------------------------------------------------------------
                       ORCA ELECTRIC PROPERTIES CALCULATION
------------------------------------------------------------------------------

Dipole Moment Calculation                       ... on
Quadrupole Moment Calculation                   ... off
Polarizability Calculation                      ... off
GBWName                                         ... Cr_O6.gbw
Electron density                                ... Cr_O6.scfp
SHARK General Contraction Test:  Segmented basis detected
   -> Pre-screening matrix found on disk - Trying to read with NShells=47
   -> Passing Pre-screening matrix on to SHARK ...ok
   -> Leaving CheckPreScreeningMatrix
----------------------
SHARK INTEGRAL PACKAGE
----------------------

Number of atoms                             ...      7
Number of basis functions                   ...    115
Number of shells                            ...     47
Maximum angular momentum                    ...      3
Integral batch strategy                     ... SHARK/LIBINT Hybrid
RI-J (if used) integral strategy            ... SPLIT-RIJ (Revised 2003 algorithm where possible)
Printlevel                                  ...      2
Contraction scheme used                     ... SEGMENTED contraction
Coulomb Range Separation                    ... NOT USED
Exchange Range Separation                   ... NOT USED
Finite Nucleus Model                        ... NOT USED
Auxiliary Coulomb fitting basis             ... NOT available
Auxiliary J/K fitting basis                 ... NOT available
Auxiliary Correlation fitting basis         ... NOT available
Auxiliary 'external' fitting basis          ... NOT available
Integral threshold                          ...     2.500000e-11
Primitive cut-off                           ...     2.500000e-12
Primitive pair pre-selection threshold      ...     2.500000e-12

The origin for moment calculation is the CENTER OF MASS  = ( 0.000000,  0.000000  0.000000)

-------------
DIPOLE MOMENT
-------------
                                X             Y             Z
Electronic contribution:     -0.00000      -0.00000      -0.00000
Nuclear contribution   :      0.00000       0.00000       0.00000
                        -----------------------------------------
Total Dipole Moment    :     -0.00000      -0.00000      -0.00000
                        -----------------------------------------
Magnitude (a.u.)       :      0.00000
Magnitude (Debye)      :      0.00000



--------------------
Rotational spectrum 
--------------------
 
Rotational constants in cm-1:     0.056523     0.056523     0.056523 
Rotational constants in MHz :  1694.525085  1694.525085  1694.525085 

 Dipole components along the rotational axes: 
x,y,z [a.u.] :    -0.000000    -0.000000    -0.000000 
x,y,z [Debye]:    -0.000000    -0.000000    -0.000000 

 

Timings for individual modules:

Sum of individual times         ...       11.875 sec (=   0.198 min)
GTO integral calculation        ...        0.307 sec (=   0.005 min)   2.6 %
SCF iterations                  ...       11.568 sec (=   0.193 min)  97.4 %
                             ****ORCA TERMINATED NORMALLY****
TOTAL RUN TIME: 0 days 0 hours 0 minutes 12 seconds 102 msec
