
                                 *****************
                                 * O   R   C   A *
                                 *****************

                                            #,                                       
                                            ###                                      
                                            ####                                     
                                            #####                                    
                                            ######                                   
                                           ########,                                 
                                     ,,################,,,,,                         
                               ,,#################################,,                 
                          ,,##########################################,,             
                       ,#########################################, ''#####,          
                    ,#############################################,,   '####,        
                  ,##################################################,,,,####,       
                ,###########''''           ''''###############################       
              ,#####''   ,,,,##########,,,,          '''####'''          '####       
            ,##' ,,,,###########################,,,                        '##       
           ' ,,###''''                  '''############,,,                           
         ,,##''                                '''############,,,,        ,,,,,,###''
      ,#''                                            '''#######################'''  
     '                                                          ''''####''''         
             ,#######,   #######,   ,#######,      ##                                
            ,#'     '#,  ##    ##  ,#'     '#,    #''#        ######   ,####,        
            ##       ##  ##   ,#'  ##            #'  '#       #        #'  '#        
            ##       ##  #######   ##           ,######,      #####,   #    #        
            '#,     ,#'  ##    ##  '#,     ,#' ,#      #,         ##   #,  ,#        
             '#######'   ##     ##  '#######'  #'      '#     #####' # '####'        



                  #######################################################
                  #                        -***-                        #
                  #          Department of theory and spectroscopy      #
                  #    Directorship and core code : Frank Neese         #
                  #        Max Planck Institute fuer Kohlenforschung    #
                  #                Kaiser Wilhelm Platz 1               #
                  #                 D-45470 Muelheim/Ruhr               #
                  #                      Germany                        #
                  #                                                     #
                  #                  All rights reserved                #
                  #                        -***-                        #
                  #######################################################


                         Program Version 5.0.4 -  RELEASE  -


 With contributions from (in alphabetic order):
   Daniel Aravena         : Magnetic Suceptibility
   Michael Atanasov       : Ab Initio Ligand Field Theory (pilot matlab implementation)
   Alexander A. Auer      : GIAO ZORA, VPT2 properties, NMR spectrum
   Ute Becker             : Parallelization
   Giovanni Bistoni       : ED, misc. LED, open-shell LED, HFLD
   Martin Brehm           : Molecular dynamics
   Dmytro Bykov           : SCF Hessian
   Vijay G. Chilkuri      : MRCI spin determinant printing, contributions to CSF-ICE
   Dipayan Datta          : RHF DLPNO-CCSD density
   Achintya Kumar Dutta   : EOM-CC, STEOM-CC
   Dmitry Ganyushin       : Spin-Orbit,Spin-Spin,Magnetic field MRCI
   Miquel Garcia          : C-PCM and meta-GGA Hessian, CC/C-PCM, Gaussian charge scheme
   Yang Guo               : DLPNO-NEVPT2, F12-NEVPT2, CIM, IAO-localization
   Andreas Hansen         : Spin unrestricted coupled pair/coupled cluster methods
   Benjamin Helmich-Paris : MC-RPA, TRAH-SCF, COSX integrals
   Lee Huntington         : MR-EOM, pCC
   Robert Izsak           : Overlap fitted RIJCOSX, COSX-SCS-MP3, EOM
   Marcus Kettner         : VPT2
   Christian Kollmar      : KDIIS, OOCD, Brueckner-CCSD(T), CCSD density, CASPT2, CASPT2-K
   Simone Kossmann        : Meta GGA functionals, TD-DFT gradient, OOMP2, MP2 Hessian
   Martin Krupicka        : Initial AUTO-CI
   Lucas Lang             : DCDCAS
   Marvin Lechner         : AUTO-CI (C++ implementation), FIC-MRCC
   Dagmar Lenk            : GEPOL surface, SMD
   Dimitrios Liakos       : Extrapolation schemes; Compound Job, initial MDCI parallelization
   Dimitrios Manganas     : Further ROCIS development; embedding schemes
   Dimitrios Pantazis     : SARC Basis sets
   Anastasios Papadopoulos: AUTO-CI, single reference methods and gradients
   Taras Petrenko         : DFT Hessian,TD-DFT gradient, ASA, ECA, R-Raman, ABS, FL, XAS/XES, NRVS
   Peter Pinski           : DLPNO-MP2, DLPNO-MP2 Gradient
   Christoph Reimann      : Effective Core Potentials
   Marius Retegan         : Local ZFS, SOC
   Christoph Riplinger    : Optimizer, TS searches, QM/MM, DLPNO-CCSD(T), (RO)-DLPNO pert. Triples
   Tobias Risthaus        : Range-separated hybrids, TD-DFT gradient, RPA, STAB
   Michael Roemelt        : Original ROCIS implementation
   Masaaki Saitow         : Open-shell DLPNO-CCSD energy and density
   Barbara Sandhoefer     : DKH picture change effects
   Avijit Sen             : IP-ROCIS
   Kantharuban Sivalingam : CASSCF convergence, NEVPT2, FIC-MRCI
   Bernardo de Souza      : ESD, SOC TD-DFT
   Georgi Stoychev        : AutoAux, RI-MP2 NMR, DLPNO-MP2 response
   Willem Van den Heuvel  : Paramagnetic NMR
   Boris Wezisla          : Elementary symmetry handling
   Frank Wennmohs         : Technical directorship


 We gratefully acknowledge several colleagues who have allowed us to
 interface, adapt or use parts of their codes:
   Stefan Grimme, W. Hujo, H. Kruse, P. Pracht,  : VdW corrections, initial TS optimization,
                  C. Bannwarth, S. Ehlert          DFT functionals, gCP, sTDA/sTD-DF
   Ed Valeev, F. Pavosevic, A. Kumar             : LibInt (2-el integral package), F12 methods
   Garnet Chan, S. Sharma, J. Yang, R. Olivares  : DMRG
   Ulf Ekstrom                                   : XCFun DFT Library
   Mihaly Kallay                                 : mrcc  (arbitrary order and MRCC methods)
   Jiri Pittner, Ondrej Demel                    : Mk-CCSD
   Frank Weinhold                                : gennbo (NPA and NBO analysis)
   Christopher J. Cramer and Donald G. Truhlar   : smd solvation model
   Lars Goerigk                                  : TD-DFT with DH, B97 family of functionals
   V. Asgeirsson, H. Jonsson                     : NEB implementation
   FAccTs GmbH                                   : IRC, NEB, NEB-TS, DLPNO-Multilevel, CI-OPT
                                                   MM, QMMM, 2- and 3-layer-ONIOM, Crystal-QMMM,
                                                   LR-CPCM, SF, NACMEs, symmetry and pop. for TD-DFT,
                                                   nearIR, NL-DFT gradient (VV10), updates on ESD,
                                                   ML-optimized integration grids
   S Lehtola, MJT Oliveira, MAL Marques          : LibXC Library
   Liviu Ungur et al                             : ANISO software


 Your calculation uses the libint2 library for the computation of 2-el integrals
 For citations please refer to: http://libint.valeyev.net

 Your ORCA version has been built with support for libXC version: 5.1.0
 For citations please refer to: https://tddft.org/programs/libxc/

 This ORCA versions uses:
   CBLAS   interface :  Fast vector & matrix operations
   LAPACKE interface :  Fast linear algebra routines
   SCALAPACK package :  Parallel linear algebra routines
   Shared memory     :  Shared parallel matrices
   BLAS/LAPACK       :  OpenBLAS 0.3.15  USE64BITINT DYNAMIC_ARCH NO_AFFINITY Zen SINGLE_THREADED
        Core in use  :  Zen
   Copyright (c) 2011-2014, The OpenBLAS Project


================================================================================

----- Orbital basis set information -----
Your calculation utilizes the basis: def2-SVP
   F. Weigend and R. Ahlrichs, Phys. Chem. Chem. Phys. 7, 3297 (2005).

----- AuxJ basis set information -----
Your calculation utilizes the auxiliary basis: def2/J
   F. Weigend, Phys. Chem. Chem. Phys. 8, 1057 (2006).

================================================================================
                                        WARNINGS
                       Please study these warnings very carefully!
================================================================================


WARNING: Geometry Optimization
  ===> : Switching off AutoStart
         For restart on a previous wavefunction, please use MOREAD

INFO   : the flag for use of the SHARK integral package has been found!

================================================================================
                                       INPUT FILE
================================================================================
NAME = keto_enlo.inp
|  1> ! BP RI OPT def2-SVP def2/J 
|  2> !PAL2
|  3> 
|  4> 
|  5> * int 0 1
|  6>    C     0     0     0        0.00000        0.00000        0.00000
|  7>    C     1     0     0        1.50479        0.00000        0.00000
|  8>    H     1     2     0        1.09263      109.55055        0.00000
|  9>    H     1     2     3        1.09352      109.69698      240.27351
| 10>    H     1     2     3        1.09287      109.63800      121.04046
| 11>    C     2     1     3        1.50479      116.74717      295.06697
| 12>    H     6     2     1        1.09287      109.62996      303.38780
| 13>    H     6     2     1        1.09352      109.69867      184.14068
| 14>    H     6     2     1        1.09264      109.55637       64.43098
| 15>    O     2     1     3        1.23006      121.61872      113.72179
| 16> *
| 17> 
| 18> 
| 19>                          ****END OF INPUT****
================================================================================

                       *****************************
                       * Geometry Optimization Run *
                       *****************************

Geometry optimization settings:
Update method            Update   .... BFGS
Choice of coordinates    CoordSys .... Z-matrix Internals
Initial Hessian          InHess   .... Almoef's Model

Convergence Tolerances:
Energy Change            TolE     ....  5.0000e-06 Eh
Max. Gradient            TolMAXG  ....  3.0000e-04 Eh/bohr
RMS Gradient             TolRMSG  ....  1.0000e-04 Eh/bohr
Max. Displacement        TolMAXD  ....  4.0000e-03 bohr
RMS Displacement         TolRMSD  ....  2.0000e-03 bohr
Strict Convergence                ....  False
------------------------------------------------------------------------------
                        ORCA OPTIMIZATION COORDINATE SETUP
------------------------------------------------------------------------------

The optimization will be done in new redundant internal coordinates
Making redundant internal coordinates   ...  (new redundants) done
Evaluating the initial hessian          ...  (Almloef) done
Evaluating the coordinates              ...  done
Calculating the B-matrix                .... done
Calculating the G-matrix                .... done
Diagonalizing the G-matrix              .... done
The first mode is                       ....   12
The number of degrees of freedom        ....   24

    -----------------------------------------------------------------
                    Redundant Internal Coordinates


    -----------------------------------------------------------------
         Definition                    Initial Value    Approx d2E/dq
    -----------------------------------------------------------------
      1. B(C   1,C   0)                  1.5048         0.409825   
      2. B(H   2,C   0)                  1.0926         0.356638   
      3. B(H   3,C   0)                  1.0935         0.355473   
      4. B(H   4,C   0)                  1.0929         0.356323   
      5. B(C   5,C   1)                  1.5048         0.409825   
      6. B(H   6,C   5)                  1.0929         0.356323   
      7. B(H   7,C   5)                  1.0935         0.355473   
      8. B(H   8,C   5)                  1.0926         0.356624   
      9. B(O   9,C   1)                  1.2301         1.007047   
     10. A(C   1,C   0,H   3)          109.6970         0.328601   
     11. A(C   1,C   0,H   4)          109.6380         0.328731   
     12. A(C   1,C   0,H   2)          109.5506         0.328779   
     13. A(H   2,C   0,H   4)          110.1932         0.289918   
     14. A(H   3,C   0,H   4)          108.6491         0.289770   
     15. A(H   2,C   0,H   3)          109.0955         0.289810   
     16. A(C   0,C   1,C   5)          116.7472         0.375098   
     17. A(C   5,C   1,O   9)          121.6200         0.436776   
     18. A(C   0,C   1,O   9)          121.6187         0.436776   
     19. A(H   7,C   5,H   8)          109.0780         0.289808   
     20. A(H   6,C   5,H   8)          110.1966         0.289917   
     21. A(C   1,C   5,H   8)          109.5564         0.328777   
     22. A(H   6,C   5,H   7)          108.6638         0.289770   
     23. A(C   1,C   5,H   7)          109.6987         0.328601   
     24. A(C   1,C   5,H   6)          109.6300         0.328731   
     25. D(O   9,C   1,C   0,H   3)     -6.0047         0.012440   
     26. D(O   9,C   1,C   0,H   2)    113.7218         0.012440   
     27. D(C   5,C   1,C   0,H   2)    -64.9330         0.012440   
     28. D(O   9,C   1,C   0,H   4)   -125.2378         0.012440   
     29. D(C   5,C   1,C   0,H   4)     56.1074         0.012440   
     30. D(C   5,C   1,C   0,H   3)    175.3405         0.012440   
     31. D(H   6,C   5,C   1,C   0)    -56.6122         0.012440   
     32. D(H   8,C   5,C   1,O   9)   -114.2238         0.012440   
     33. D(H   8,C   5,C   1,C   0)     64.4310         0.012440   
     34. D(H   7,C   5,C   1,O   9)      5.4859         0.012440   
     35. D(H   7,C   5,C   1,C   0)   -175.8593         0.012440   
     36. D(H   6,C   5,C   1,O   9)    124.7330         0.012440   
    -----------------------------------------------------------------

Number of atoms                         .... 10
Number of degrees of freedom            .... 36

         *************************************************************
         *                GEOMETRY OPTIMIZATION CYCLE   1            *
         *************************************************************
---------------------------------
CARTESIAN COORDINATES (ANGSTROEM)
---------------------------------
  C      0.000000    0.000000    0.000000
  C      1.504790    0.000000    0.000000
  H     -0.365636    1.029636    0.000000
  H     -0.368566   -0.510506    0.894052
  H     -0.367288   -0.530753   -0.881910
  C      2.182027    0.569329   -1.217213
  H      1.841415    0.037722   -2.109257
  H      3.264883    0.445654   -1.128257
  H      1.949803    1.633735   -1.300717
  O      2.149666   -0.421391    0.958964

----------------------------
CARTESIAN COORDINATES (A.U.)
----------------------------
  NO LB      ZA    FRAG     MASS         X           Y           Z
   0 C     6.0000    0    12.011    0.000000    0.000000    0.000000
   1 C     6.0000    0    12.011    2.843641    0.000000    0.000000
   2 H     1.0000    0     1.008   -0.690952    1.945730    0.000000
   3 H     1.0000    0     1.008   -0.696489   -0.964717    1.689513
   4 H     1.0000    0     1.008   -0.694073   -1.002978   -1.666569
   5 C     6.0000    0    12.011    4.123434    1.075875   -2.300199
   6 H     1.0000    0     1.008    3.479770    0.071285   -3.985918
   7 H     1.0000    0     1.008    6.169735    0.842164   -2.132096
   8 H     1.0000    0     1.008    3.684593    3.087312   -2.457998
   9 O     8.0000    0    15.999    4.062281   -0.796313    1.812179

--------------------------------
INTERNAL COORDINATES (ANGSTROEM)
--------------------------------
 C      0   0   0     0.000000000000     0.00000000     0.00000000
 C      1   0   0     1.504790000000     0.00000000     0.00000000
 H      1   2   0     1.092630000000   109.55055000     0.00000000
 H      1   2   3     1.093520000000   109.69698000   240.27351000
 H      1   2   3     1.092870000000   109.63800000   121.04046000
 C      2   1   3     1.504790000000   116.74717000   295.06697000
 H      6   2   1     1.092870000000   109.62996000   303.38780000
 H      6   2   1     1.093520000000   109.69867000   184.14068000
 H      6   2   1     1.092640000000   109.55637000    64.43098000
 O      2   1   3     1.230060000000   121.61872000   113.72179000

---------------------------
INTERNAL COORDINATES (A.U.)
---------------------------
 C      0   0   0     0.000000000000     0.00000000     0.00000000
 C      1   0   0     2.843640989063     0.00000000     0.00000000
 H      1   2   0     2.064771465706   109.55055000     0.00000000
 H      1   2   3     2.066453321966   109.69698000   240.27351000
 H      1   2   3     2.065224999979   109.63800000   121.04046000
 C      2   1   3     2.843640989063   116.74717000   295.06697000
 H      6   2   1     2.065224999979   109.62996000   303.38780000
 H      6   2   1     2.066453321966   109.69867000   184.14068000
 H      6   2   1     2.064790362968   109.55637000    64.43098000
 O      2   1   3     2.324476528291   121.61872000   113.72179000

---------------------
BASIS SET INFORMATION
---------------------
There are 3 groups of distinct atoms

 Group   1 Type C   : 7s4p1d contracted to 3s2p1d pattern {511/31/1}
 Group   2 Type H   : 4s1p contracted to 2s1p pattern {31/1}
 Group   3 Type O   : 7s4p1d contracted to 3s2p1d pattern {511/31/1}

Atom   0C    basis set group =>   1
Atom   1C    basis set group =>   1
Atom   2H    basis set group =>   2
Atom   3H    basis set group =>   2
Atom   4H    basis set group =>   2
Atom   5C    basis set group =>   1
Atom   6H    basis set group =>   2
Atom   7H    basis set group =>   2
Atom   8H    basis set group =>   2
Atom   9O    basis set group =>   3
---------------------------------
AUXILIARY/J BASIS SET INFORMATION
---------------------------------
There are 3 groups of distinct atoms

 Group   1 Type C   : 12s5p4d2f1g contracted to 6s4p3d1f1g pattern {711111/2111/211/2/1}
 Group   2 Type H   : 5s2p1d contracted to 3s1p1d pattern {311/2/1}
 Group   3 Type O   : 12s5p4d2f1g contracted to 6s4p3d1f1g pattern {711111/2111/211/2/1}

Atom   0C    basis set group =>   1
Atom   1C    basis set group =>   1
Atom   2H    basis set group =>   2
Atom   3H    basis set group =>   2
Atom   4H    basis set group =>   2
Atom   5C    basis set group =>   1
Atom   6H    basis set group =>   2
Atom   7H    basis set group =>   2
Atom   8H    basis set group =>   2
Atom   9O    basis set group =>   3


           ************************************************************
           *        Program running with 2 parallel MPI-processes     *
           *              working on a common directory               *
           ************************************************************
------------------------------------------------------------------------------
                           ORCA GTO INTEGRAL CALCULATION
                           -- RI-GTO INTEGRALS CHOSEN --
------------------------------------------------------------------------------
------------------------------------------------------------------------------
                   ___                                                        
                  /   \      - P O W E R E D   B Y -                         
                 /     \                                                     
                 |  |  |   _    _      __       _____    __    __             
                 |  |  |  | |  | |    /  \     |  _  \  |  |  /  |          
                  \  \/   | |  | |   /    \    | | | |  |  | /  /          
                 / \  \   | |__| |  /  /\  \   | |_| |  |  |/  /          
                |  |  |   |  __  | /  /__\  \  |    /   |      \           
                |  |  |   | |  | | |   __   |  |    \   |  |\   \          
                \     /   | |  | | |  |  |  |  | |\  \  |  | \   \       
                 \___/    |_|  |_| |__|  |__|  |_| \__\ |__|  \__/        
                                                                              
                      - O R C A' S   B I G   F R I E N D -                    
                                      &                                       
                       - I N T E G R A L  F E E D E R -                       
                                                                              
 v1 FN, 2020, v2 2021                                                         
------------------------------------------------------------------------------


Reading SHARK input file keto_enlo.SHARKINP.tmp ... ok
----------------------
SHARK INTEGRAL PACKAGE
----------------------

Number of atoms                             ...     10
Number of basis functions                   ...     86
Number of shells                            ...     42
Maximum angular momentum                    ...      2
Integral batch strategy                     ... SHARK/LIBINT Hybrid
RI-J (if used) integral strategy            ... SPLIT-RIJ (Revised 2003 algorithm where possible)
Printlevel                                  ...      1
Contraction scheme used                     ... SEGMENTED contraction
Coulomb Range Separation                    ... NOT USED
Exchange Range Separation                   ... NOT USED
Finite Nucleus Model                        ... NOT USED
Auxiliary Coulomb fitting basis             ... AVAILABLE
   # of basis functions in Aux-J            ...    262
   # of shells in Aux-J                     ...     90
   Maximum angular momentum in Aux-J        ...      4
Auxiliary J/K fitting basis                 ... NOT available
Auxiliary Correlation fitting basis         ... NOT available
Auxiliary 'external' fitting basis          ... NOT available
Integral threshold                          ...     2.500000e-11
Primitive cut-off                           ...     2.500000e-12
Primitive pair pre-selection threshold      ...     2.500000e-12

Calculating pre-screening integrals         ... done (  0.0 sec) Dimension = 42
Organizing shell pair data                  ... done (  0.0 sec)
Shell pair information
Total number of shell pairs                 ...       903
Shell pairs after pre-screening             ...       898
Total number of primitive shell pairs       ...      3151
Primitive shell pairs kept                  ...      2593
          la=0 lb=0:    297 shell pairs
          la=1 lb=0:    334 shell pairs
          la=1 lb=1:    105 shell pairs
          la=2 lb=0:     96 shell pairs
          la=2 lb=1:     56 shell pairs
          la=2 lb=2:     10 shell pairs

Calculating one electron integrals          ... done (  0.0 sec)
Calculating RI/J V-Matrix + Cholesky decomp.... done (  0.1 sec)
Calculating Nuclear repulsion               ... done (  0.0 sec) ENN=    119.338499536865 Eh

SHARK setup successfully completed in   0.6 seconds

Maximum memory used throughout the entire GTOINT-calculation: 9.6 MB


           ************************************************************
           *        Program running with 2 parallel MPI-processes     *
           *              working on a common directory               *
           ************************************************************
-------------------------------------------------------------------------------
                                 ORCA SCF
-------------------------------------------------------------------------------

------------
SCF SETTINGS
------------
Hamiltonian:
 Density Functional     Method          .... DFT(GTOs)
 Exchange Functional    Exchange        .... B88
   X-Alpha parameter    XAlpha          ....  0.666667
   Becke's b parameter  XBeta           ....  0.004200
 Correlation Functional Correlation     .... P86
 LDA part of GGA corr.  LDAOpt          .... PW91-LDA
 Gradients option       PostSCFGGA      .... off
   Density functional embedding theory  .... OFF
   NL short-range parameter             ....  4.400000
 RI-approximation to the Coulomb term is turned on
   Number of AuxJ basis functions       .... 262


General Settings:
 Integral files         IntName         .... keto_enlo
 Hartree-Fock type      HFTyp           .... RHF
 Total Charge           Charge          ....    0
 Multiplicity           Mult            ....    1
 Number of Electrons    NEL             ....   32
 Basis Dimension        Dim             ....   86
 Nuclear Repulsion      ENuc            ....    119.3384995369 Eh

Convergence Acceleration:
 DIIS                   CNVDIIS         .... on
   Start iteration      DIISMaxIt       ....    12
   Startup error        DIISStart       ....  0.200000
   # of expansion vecs  DIISMaxEq       ....     5
   Bias factor          DIISBfac        ....   1.050
   Max. coefficient     DIISMaxC        ....  10.000
 Trust-Rad. Augm. Hess. CNVTRAH         .... auto
   Auto Start mean grad. ratio tolernc. ....  1.125000
   Auto Start start iteration           ....    20
   Auto Start num. interpolation iter.  ....    10
   Max. Number of Micro iterations      ....    16
   Max. Number of Macro iterations      .... Maxiter - #DIIS iter
   Number of Davidson start vectors     ....     2
   Converg. threshold I  (grad. norm)   ....   1.000e-05
   Converg. threshold II (energy diff.) ....   1.000e-08
   Grad. Scal. Fac. for Micro threshold ....   0.100
   Minimum threshold for Micro iter.    ....   0.010
   NR start threshold (gradient norm)   ....   0.001
   Initial trust radius                 ....   0.400
   Minimum AH scaling param. (alpha)    ....   1.000
   Maximum AH scaling param. (alpha)    .... 1000.000
   Orbital update algorithm             .... Taylor
   White noise on init. David. guess    .... on
   Maximum white noise                  ....   0.010
   Quad. conv. algorithm                .... NR
 SOSCF                  CNVSOSCF        .... on
   Start iteration      SOSCFMaxIt      ....   150
   Startup grad/error   SOSCFStart      ....  0.003300
 Level Shifting         CNVShift        .... on
   Level shift para.    LevelShift      ....    0.2500
   Turn off err/grad.   ShiftErr        ....    0.0010
 Zerner damping         CNVZerner       .... off
 Static damping         CNVDamp         .... on
   Fraction old density DampFac         ....    0.7000
   Max. Damping (<1)    DampMax         ....    0.9800
   Min. Damping (>=0)   DampMin         ....    0.0000
   Turn off err/grad.   DampErr         ....    0.1000
 Fernandez-Rico         CNVRico         .... off

SCF Procedure:
 Maximum # iterations   MaxIter         ....   125
 SCF integral mode      SCFMode         .... Direct
   Integral package                     .... SHARK and LIBINT hybrid scheme
 Reset frequency        DirectResetFreq ....    20
 Integral Threshold     Thresh          ....  2.500e-11 Eh
 Primitive CutOff       TCut            ....  2.500e-12 Eh

Convergence Tolerance:
 Convergence Check Mode ConvCheckMode   .... Total+1el-Energy
 Convergence forced     ConvForced      .... 0
 Energy Change          TolE            ....  1.000e-08 Eh
 1-El. energy change                    ....  1.000e-05 Eh
 Orbital Gradient       TolG            ....  1.000e-05
 Orbital Rotation angle TolX            ....  1.000e-05
 DIIS Error             TolErr          ....  5.000e-07


Diagonalization of the overlap matrix:
Smallest eigenvalue                        ... 3.259e-03
Time for diagonalization                   ...    0.081 sec
Threshold for overlap eigenvalues          ... 1.000e-08
Number of eigenvalues below threshold      ... 0
Time for construction of square roots      ...    0.040 sec
Total time needed                          ...    0.122 sec

Time for model grid setup =    0.157 sec

------------------------------
INITIAL GUESS: MODEL POTENTIAL
------------------------------
Loading Hartree-Fock densities                     ... done
Calculating cut-offs                               ... done
Initializing the effective Hamiltonian             ... done
Setting up the integral package (SHARK)            ... done
Starting the Coulomb interaction                   ... done (   0.5 sec)
Reading the grid                                   ... done
Mapping shells                                     ... done
Starting the XC term evaluation                    ... done (   0.1 sec)
  promolecular density results
     # of electrons  =     31.997897851
     EX              =    -25.366628747
     EC              =     -1.133589431
     EX+EC           =    -26.500218178
Transforming the Hamiltonian                       ... done (   0.0 sec)
Diagonalizing the Hamiltonian                      ... done (   0.0 sec)
Back transforming the eigenvectors                 ... done (   0.0 sec)
Now organizing SCF variables                       ... done
                      ------------------
                      INITIAL GUESS DONE (   0.7 sec)
                      ------------------
-------------------
DFT GRID GENERATION
-------------------

General Integration Accuracy     IntAcc      ... 4.388
Radial Grid Type                 RadialGrid  ... OptM3 with GC (2021)
Angular Grid (max. ang.)         AngularGrid ... 4 (Lebedev-302)
Angular grid pruning method      GridPruning ... 4 (adaptive)
Weight generation scheme         WeightScheme... Becke
Basis function cutoff            BFCut       ... 1.0000e-11
Integration weight cutoff        WCut        ... 1.0000e-14
Angular grids for H and He will be reduced by one unit
Partially contracted basis set               ... off
Rotationally invariant grid construction     ... off

Total number of grid points                  ...    43751
Total number of batches                      ...      688
Average number of points per batch           ...       63
Average number of grid points per atom       ...     4375
Time for grid setup =    0.198 sec

--------------
SCF ITERATIONS
--------------
ITER       Energy         Delta-E        Max-DP      RMS-DP      [F,P]     Damp
               ***  Starting incremental Fock matrix formation  ***
  0   -192.8547338138   0.000000000000 0.13091705  0.00579069  0.2308016 0.7000
  1   -192.9340872741  -0.079353460382 0.08014878  0.00359476  0.0809444 0.7000
                               ***Turning on DIIS***
  2   -192.9571051048  -0.023017830700 0.07060808  0.00410319  0.0303586 0.0000
  3   -192.9985188412  -0.041413736386 0.06560169  0.00265870  0.0499642 0.0000
  4   -193.0075826326  -0.009063791360 0.01359600  0.00065938  0.0259759 0.0000
  5   -193.0093840332  -0.001801400618 0.00342628  0.00021090  0.0048823 0.0000
                      *** Initiating the SOSCF procedure ***
                           *** Shutting down DIIS ***
                      *** Re-Reading the Fockian *** 
                      *** Removing any level shift *** 
ITER      Energy       Delta-E        Grad      Rot      Max-DP    RMS-DP
  6   -193.00946243  -0.0000783984  0.000311  0.000311  0.000830  0.000068
               *** Restarting incremental Fock matrix formation ***
  7   -193.00946701  -0.0000045761  0.000145  0.000501  0.001496  0.000060
  8   -193.00946713  -0.0000001264  0.000127  0.000146  0.000361  0.000014
  9   -193.00946743  -0.0000002913  0.000020  0.000070  0.000175  0.000008
 10   -193.00946742   0.0000000063  0.000060  0.000079  0.000086  0.000004
 11   -193.00946743  -0.0000000138  0.000019  0.000033  0.000045  0.000004
 12   -193.00946743  -0.0000000007  0.000006  0.000012  0.000019  0.000001
                  ***Gradient check signals convergence***
              ***Rediagonalizing the Fockian in SOSCF/NRSCF***

               *****************************************************
               *                     SUCCESS                       *
               *           SCF CONVERGED AFTER  13 CYCLES          *
               *****************************************************


----------------
TOTAL SCF ENERGY
----------------

Total Energy       :         -193.00946744 Eh           -5252.05462 eV

Components:
Nuclear Repulsion  :          119.33849954 Eh            3247.36567 eV
Electronic Energy  :         -312.34796697 Eh           -8499.42028 eV
One Electron Energy:         -497.06999138 Eh          -13525.96211 eV
Two Electron Energy:          184.72202441 Eh            5026.54183 eV

Virial components:
Potential Energy   :         -384.01825371 Eh          -10449.66793 eV
Kinetic Energy     :          191.00878627 Eh            5197.61332 eV
Virial Ratio       :            2.01047429


DFT components:
N(Alpha)           :       15.999990286607 electrons
N(Beta)            :       15.999990286607 electrons
N(Total)           :       31.999980573214 electrons
E(X)               :      -25.908407268867 Eh       
E(C)               :       -1.142389993932 Eh       
E(XC)              :      -27.050797262799 Eh       
DFET-embed. en.    :        0.000000000000 Eh       

---------------
SCF CONVERGENCE
---------------

  Last Energy change         ...   -1.6069e-09  Tolerance :   1.0000e-08
  Last MAX-Density change    ...    8.0447e-06  Tolerance :   1.0000e-07
  Last RMS-Density change    ...    3.4074e-07  Tolerance :   5.0000e-09
  Last Orbital Gradient      ...    1.7117e-06  Tolerance :   1.0000e-05
  Last Orbital Rotation      ...    2.4446e-06  Tolerance :   1.0000e-05

             **** THE GBW FILE WAS UPDATED (keto_enlo.gbw) ****
             **** DENSITY keto_enlo.scfp WAS UPDATED ****
             **** ENERGY FILE WAS UPDATED (keto_enlo.en.tmp) ****
             **** THE GBW FILE WAS UPDATED (keto_enlo.gbw) ****
             **** DENSITY keto_enlo.scfp WAS UPDATED ****
----------------
ORBITAL ENERGIES
----------------

  NO   OCC          E(Eh)            E(eV) 
   0   2.0000     -18.761579      -510.5285 
   1   2.0000      -9.994576      -271.9662 
   2   2.0000      -9.917429      -269.8670 
   3   2.0000      -9.917419      -269.8667 
   4   2.0000      -0.930846       -25.3296 
   5   2.0000      -0.697445       -18.9784 
   6   2.0000      -0.641214       -17.4483 
   7   2.0000      -0.472716       -12.8633 
   8   2.0000      -0.421358       -11.4657 
   9   2.0000      -0.408534       -11.1168 
  10   2.0000      -0.397618       -10.8197 
  11   2.0000      -0.368173       -10.0185 
  12   2.0000      -0.342182        -9.3113 
  13   2.0000      -0.334787        -9.1100 
  14   2.0000      -0.309313        -8.4168 
  15   2.0000      -0.199847        -5.4381 
  16   0.0000      -0.055530        -1.5111 
  17   0.0000       0.034366         0.9351 
  18   0.0000       0.089102         2.4246 
  19   0.0000       0.089596         2.4380 
  20   0.0000       0.099430         2.7056 
  21   0.0000       0.124299         3.3824 
  22   0.0000       0.126647         3.4462 
  23   0.0000       0.157616         4.2890 
  24   0.0000       0.234633         6.3847 
  25   0.0000       0.246604         6.7104 
  26   0.0000       0.359403         9.7799 
  27   0.0000       0.406290        11.0557 
  28   0.0000       0.418669        11.3926 
  29   0.0000       0.435604        11.8534 
  30   0.0000       0.452927        12.3248 
  31   0.0000       0.534860        14.5543 
  32   0.0000       0.564053        15.3487 
  33   0.0000       0.569038        15.4843 
  34   0.0000       0.591803        16.1038 
  35   0.0000       0.596631        16.2351 
  36   0.0000       0.601978        16.3806 
  37   0.0000       0.607631        16.5345 
  38   0.0000       0.627876        17.0854 
  39   0.0000       0.639419        17.3995 
  40   0.0000       0.654335        17.8054 
  41   0.0000       0.656400        17.8616 
  42   0.0000       0.769269        20.9329 
  43   0.0000       0.876027        23.8379 
  44   0.0000       0.947877        25.7930 
  45   0.0000       0.953229        25.9387 
  46   0.0000       1.054053        28.6822 
  47   0.0000       1.117183        30.4001 
  48   0.0000       1.228920        33.4406 
  49   0.0000       1.287711        35.0404 
  50   0.0000       1.371327        37.3157 
  51   0.0000       1.442819        39.2611 
  52   0.0000       1.446563        39.3630 
  53   0.0000       1.489940        40.5433 
  54   0.0000       1.522032        41.4166 
  55   0.0000       1.546378        42.0791 
  56   0.0000       1.630576        44.3702 
  57   0.0000       1.640034        44.6276 
  58   0.0000       1.703508        46.3548 
  59   0.0000       1.716209        46.7004 
  60   0.0000       1.724612        46.9291 
  61   0.0000       1.725321        46.9484 
  62   0.0000       1.752457        47.6868 
  63   0.0000       1.856614        50.5210 
  64   0.0000       1.923381        52.3379 
  65   0.0000       1.965108        53.4733 
  66   0.0000       1.992928        54.2303 
  67   0.0000       2.108022        57.3622 
  68   0.0000       2.220440        60.4213 
  69   0.0000       2.260668        61.5159 
  70   0.0000       2.271041        61.7982 
  71   0.0000       2.383440        64.8567 
  72   0.0000       2.395068        65.1731 
  73   0.0000       2.402077        65.3638 
  74   0.0000       2.541337        69.1533 
  75   0.0000       2.589968        70.4766 
  76   0.0000       2.606316        70.9215 
  77   0.0000       2.661908        72.4342 
  78   0.0000       2.764642        75.2297 
  79   0.0000       2.792392        75.9848 
  80   0.0000       2.818530        76.6961 
  81   0.0000       2.859085        77.7997 
  82   0.0000       2.937956        79.9458 
  83   0.0000       3.049659        82.9854 
  84   0.0000       3.267811        88.9217 
  85   0.0000       3.491846        95.0180 

                    ********************************
                    * MULLIKEN POPULATION ANALYSIS *
                    ********************************

-----------------------
MULLIKEN ATOMIC CHARGES
-----------------------
   0 C :   -0.002930
   1 C :   -0.086752
   2 H :    0.051226
   3 H :    0.044339
   4 H :    0.043889
   5 C :   -0.002976
   6 H :    0.044256
   7 H :    0.044286
   8 H :    0.050916
   9 O :   -0.186254
Sum of atomic charges:    0.0000000

--------------------------------
MULLIKEN REDUCED ORBITAL CHARGES
--------------------------------
  0 C s       :     2.965376  s :     2.965376
      pz      :     1.022953  p :     3.015007
      px      :     0.981910
      py      :     1.010144
      dz2     :     0.004977  d :     0.022547
      dxz     :     0.003829
      dyz     :     0.004117
      dx2y2   :     0.006292
      dxy     :     0.003332
  1 C s       :     3.198188  s :     3.198188
      pz      :     0.937278  p :     2.797947
      px      :     1.030269
      py      :     0.830401
      dz2     :     0.026227  d :     0.090617
      dxz     :     0.023739
      dyz     :     0.014190
      dx2y2   :     0.015122
      dxy     :     0.011339
  2 H s       :     0.924632  s :     0.924632
      pz      :     0.005754  p :     0.024142
      px      :     0.006140
      py      :     0.012249
  3 H s       :     0.933269  s :     0.933269
      pz      :     0.010842  p :     0.022392
      px      :     0.004720
      py      :     0.006830
  4 H s       :     0.932193  s :     0.932193
      pz      :     0.010446  p :     0.023919
      px      :     0.006033
      py      :     0.007440
  5 C s       :     2.965373  s :     2.965373
      pz      :     0.990319  p :     3.015056
      px      :     1.023572
      py      :     1.001165
      dz2     :     0.005437  d :     0.022547
      dxz     :     0.004151
      dyz     :     0.004182
      dx2y2   :     0.006442
      dxy     :     0.002336
  6 H s       :     0.931816  s :     0.931816
      pz      :     0.010757  p :     0.023928
      px      :     0.005963
      py      :     0.007208
  7 H s       :     0.933325  s :     0.933325
      pz      :     0.004461  p :     0.022389
      px      :     0.012971
      py      :     0.004957
  8 H s       :     0.924949  s :     0.924949
      pz      :     0.005474  p :     0.024135
      px      :     0.005682
      py      :     0.012979
  9 O s       :     3.765490  s :     3.765490
      pz      :     1.423411  p :     4.404206
      px      :     1.665751
      py      :     1.315044
      dz2     :     0.004408  d :     0.016558
      dxz     :     0.004671
      dyz     :     0.003705
      dx2y2   :     0.001690
      dxy     :     0.002084


                     *******************************
                     * LOEWDIN POPULATION ANALYSIS *
                     *******************************

----------------------
LOEWDIN ATOMIC CHARGES
----------------------
   0 C :   -0.089709
   1 C :    0.064186
   2 H :    0.047326
   3 H :    0.040475
   4 H :    0.042910
   5 C :   -0.089715
   6 H :    0.043104
   7 H :    0.040442
   8 H :    0.047154
   9 O :   -0.146172

-------------------------------
LOEWDIN REDUCED ORBITAL CHARGES
-------------------------------
  0 C s       :     2.850072  s :     2.850072
      pz      :     1.073373  p :     3.174471
      px      :     1.037987
      py      :     1.063112
      dz2     :     0.014194  d :     0.065166
      dxz     :     0.010407
      dyz     :     0.011616
      dx2y2   :     0.019785
      dxy     :     0.009163
  1 C s       :     2.890170  s :     2.890170
      pz      :     0.984858  p :     2.838673
      px      :     1.039100
      py      :     0.814716
      dz2     :     0.060711  d :     0.206971
      dxz     :     0.056889
      dyz     :     0.031136
      dx2y2   :     0.035527
      dxy     :     0.022707
  2 H s       :     0.884200  s :     0.884200
      pz      :     0.013329  p :     0.068474
      px      :     0.018137
      py      :     0.037008
  3 H s       :     0.892693  s :     0.892693
      pz      :     0.032369  p :     0.066832
      px      :     0.015885
      py      :     0.018578
  4 H s       :     0.888790  s :     0.888790
      pz      :     0.030769  p :     0.068300
      px      :     0.018050
      py      :     0.019481
  5 C s       :     2.850081  s :     2.850081
      pz      :     1.049299  p :     3.174469
      px      :     1.067457
      py      :     1.057712
      dz2     :     0.016048  d :     0.065166
      dxz     :     0.012029
      dyz     :     0.012581
      dx2y2   :     0.018643
      dxy     :     0.005865
  6 H s       :     0.888589  s :     0.888589
      pz      :     0.033073  p :     0.068307
      px      :     0.015697
      py      :     0.019538
  7 H s       :     0.892728  s :     0.892728
      pz      :     0.012421  p :     0.066830
      px      :     0.041896
      py      :     0.012513
  8 H s       :     0.884378  s :     0.884378
      pz      :     0.014681  p :     0.068468
      px      :     0.014441
      py      :     0.039347
  9 O s       :     3.565107  s :     3.565107
      pz      :     1.508532  p :     4.551887
      px      :     1.710543
      py      :     1.332812
      dz2     :     0.007354  d :     0.029178
      dxz     :     0.009567
      dyz     :     0.006283
      dx2y2   :     0.002693
      dxy     :     0.003281


                      *****************************
                      * MAYER POPULATION ANALYSIS *
                      *****************************

  NA   - Mulliken gross atomic population
  ZA   - Total nuclear charge
  QA   - Mulliken gross atomic charge
  VA   - Mayer's total valence
  BVA  - Mayer's bonded valence
  FA   - Mayer's free valence

  ATOM       NA         ZA         QA         VA         BVA        FA
  0 C      6.0029     6.0000    -0.0029     3.8221     3.8221    -0.0000
  1 C      6.0868     6.0000    -0.0868     4.3362     4.3362     0.0000
  2 H      0.9488     1.0000     0.0512     0.9971     0.9971     0.0000
  3 H      0.9557     1.0000     0.0443     1.0212     1.0212     0.0000
  4 H      0.9561     1.0000     0.0439     0.9968     0.9968     0.0000
  5 C      6.0030     6.0000    -0.0030     3.8222     3.8222    -0.0000
  6 H      0.9557     1.0000     0.0443     0.9968     0.9968     0.0000
  7 H      0.9557     1.0000     0.0443     1.0212     1.0212    -0.0000
  8 H      0.9491     1.0000     0.0509     0.9970     0.9970     0.0000
  9 O      8.1863     8.0000    -0.1863     2.2830     2.2830     0.0000

  Mayer bond orders larger than 0.100000
B(  0-C ,  1-C ) :   1.0125 B(  0-C ,  2-H ) :   0.9446 B(  0-C ,  3-H ) :   0.9506 
B(  0-C ,  4-H ) :   0.9457 B(  1-C ,  5-C ) :   1.0127 B(  1-C ,  9-O ) :   2.1705 
B(  5-C ,  6-H ) :   0.9455 B(  5-C ,  7-H ) :   0.9506 B(  5-C ,  8-H ) :   0.9448 


-------
TIMINGS
-------

Total SCF time: 0 days 0 hours 0 min 3 sec 

Total time                  ....       3.907 sec
Sum of individual times     ....       3.142 sec  ( 80.4%)

Fock matrix formation       ....       2.162 sec  ( 55.3%)
  Split-RI-J                ....       0.441 sec  ( 20.4% of F)
  XC integration            ....       1.655 sec  ( 76.5% of F)
    Basis function eval.    ....       0.555 sec  ( 33.5% of XC)
    Density eval.           ....       0.389 sec  ( 23.5% of XC)
    XC-Functional eval.     ....       0.163 sec  (  9.9% of XC)
    XC-Potential eval.      ....       0.307 sec  ( 18.5% of XC)
Diagonalization             ....       0.012 sec  (  0.3%)
Density matrix formation    ....       0.001 sec  (  0.0%)
Population analysis         ....       0.005 sec  (  0.1%)
Initial guess               ....       0.588 sec  ( 15.0%)
Orbital Transformation      ....       0.000 sec  (  0.0%)
Orbital Orthonormalization  ....       0.000 sec  (  0.0%)
DIIS solution               ....       0.009 sec  (  0.2%)
SOSCF solution              ....       0.011 sec  (  0.3%)
Grid generation             ....       0.355 sec  (  9.1%)

Maximum memory used throughout the entire SCF-calculation: 15.3 MB

-------------------------   --------------------
FINAL SINGLE POINT ENERGY      -193.009467435188
-------------------------   --------------------



           ************************************************************
           *        Program running with 2 parallel MPI-processes     *
           *              working on a common directory               *
           ************************************************************
------------------------------------------------------------------------------
                         ORCA SCF GRADIENT CALCULATION
------------------------------------------------------------------------------

Gradient of the Kohn-Sham DFT energy:
Kohn-Sham wavefunction type      ... RKS
Hartree-Fock exchange scaling    ...    0.000
Number of operators              ...    1
Number of atoms                  ...   10
Basis set dimensions             ...   86
Integral neglect threshold       ... 2.5e-11
Integral primitive cutoff        ... 2.5e-12
SHARK Integral package           ... ON

Nuc. rep. gradient       (SHARK) ... done (  0.0 sec)
HCore & Overlap gradient (SHARK) ... done (  0.0 sec)
RI-J gradient            (SHARK) ... done (  0.3 sec)
Exchange-correlation gradient    ... done

------------------
CARTESIAN GRADIENT
------------------

   1   C   :   -0.003354927    0.005944486   -0.004616061
   2   C   :   -0.012079052    0.005528711   -0.019028705
   3   H   :    0.006037484   -0.009864404    0.003389049
   4   H   :    0.002159554    0.002921833   -0.007400288
   5   H   :    0.006519193    0.001332712    0.010170847
   6   C   :   -0.004514686    0.005448621   -0.004144309
   7   H   :    0.004734080    0.000987276    0.011143452
   8   H   :   -0.008051742    0.000270306   -0.001691029
   9   H   :    0.003836834   -0.010405914    0.004773325
  10   O   :    0.004713262   -0.002163627    0.007403720

Difference to translation invariance:
           :   -0.0000000000    0.0000000000    0.0000000000

Difference to rotation invariance:
           :   -0.0000430643    0.0000155193    0.0000999309

Norm of the cartesian gradient     ...    0.0384377936
RMS gradient                       ...    0.0070177489
MAX gradient                       ...    0.0190287048

-------
TIMINGS
-------

Total SCF gradient time            ...        1.207 sec

One electron gradient       ....       0.033 sec  (  2.8%)
RI-J Coulomb gradient       ....       0.334 sec  ( 27.6%)
XC gradient                 ....       0.711 sec  ( 58.9%)

Maximum memory used throughout the entire SCFGRAD-calculation: 11.4 MB
------------------------------------------------------------------------------
                         ORCA GEOMETRY RELAXATION STEP
------------------------------------------------------------------------------

Reading the OPT-File                    .... done
Getting information on internals        .... done
Copying old internal coords+grads       .... done
Making the new internal coordinates     .... (new redundants).... done
Validating the new internal coordinates .... (new redundants).... done
Calculating the B-matrix                .... done
Calculating the G,G- and P matrices     .... done
Transforming gradient to internals      .... done
Projecting the internal gradient        .... done
Number of atoms                         ....  10
Number of internal coordinates          ....  36
Current Energy                          ....  -193.009467435 Eh
Current gradient norm                   ....     0.038437794 Eh/bohr
Maximum allowed component of the step   ....  0.300
Current trust radius                    ....  0.300
Evaluating the initial hessian          ....  (Almloef) done
Projecting the Hessian                  .... done
Forming the augmented Hessian           .... done
Diagonalizing the augmented Hessian     .... done
Last element of RFO vector              ....  0.994136217
Lowest eigenvalues of augmented Hessian:
 -0.003016420  0.012439873  0.012445003  0.012495857  0.137571842
Length of the computed step             ....  0.108772839
The final length of the internal step   ....  0.108772839
Converting the step to cartesian space:
 Initial RMS(Int)=    0.0181288066
Transforming coordinates:
 Iter   0:  RMS(Cart)=    0.0217489865 RMS(Int)=    0.0181027638
 Iter   1:  RMS(Cart)=    0.0001443607 RMS(Int)=    0.0001359997
 Iter   2:  RMS(Cart)=    0.0000021970 RMS(Int)=    0.0000020098
 Iter   3:  RMS(Cart)=    0.0000000137 RMS(Int)=    0.0000000173
done
Storing new coordinates                 .... done

                                .--------------------.
          ----------------------|Geometry convergence|-------------------------
          Item                value                   Tolerance       Converged
          ---------------------------------------------------------------------
          RMS gradient        0.0054976581            0.0001000000      NO
          MAX gradient        0.0113588511            0.0003000000      NO
          RMS step            0.0181288066            0.0020000000      NO
          MAX step            0.0314721431            0.0040000000      NO
          ........................................................
          Max(Bonds)      0.0167      Max(Angles)    1.42
          Max(Dihed)        1.68      Max(Improp)    0.00
          ---------------------------------------------------------------------

The optimization has not yet converged - more geometry cycles are needed


    ---------------------------------------------------------------------------
                         Redundant Internal Coordinates
                            (Angstroem and degrees)

        Definition                    Value    dE/dq     Step     New-Value
    ----------------------------------------------------------------------------
     1. B(C   1,C   0)                1.5048 -0.011359  0.0146    1.5193   
     2. B(H   2,C   0)                1.0926 -0.011313  0.0166    1.1093   
     3. B(H   3,C   0)                1.0935 -0.008144  0.0120    1.1055   
     4. B(H   4,C   0)                1.0929 -0.011047  0.0163    1.1091   
     5. B(C   5,C   1)                1.5048 -0.011355  0.0146    1.5193   
     6. B(H   6,C   5)                1.0929 -0.011052  0.0163    1.1091   
     7. B(H   7,C   5)                1.0935 -0.008140  0.0120    1.1055   
     8. B(H   8,C   5)                1.0926 -0.011319  0.0167    1.1093   
     9. B(O   9,C   1)                1.2301  0.008984 -0.0047    1.2254   
    10. A(C   1,C   0,H   3)          109.70  0.001076    0.01    109.71   
    11. A(C   1,C   0,H   4)          109.64 -0.003751    0.64    110.27   
    12. A(C   1,C   0,H   2)          109.55 -0.002148    0.24    109.79   
    13. A(H   2,C   0,H   4)          110.19  0.005294   -1.41    108.78   
    14. A(H   3,C   0,H   4)          108.65 -0.000605    0.48    109.13   
    15. A(H   2,C   0,H   3)          109.10  0.000176    0.05    109.15   
    16. A(C   0,C   1,C   5)          116.75  0.000795   -0.10    116.64   
    17. A(C   5,C   1,O   9)          121.62 -0.000418    0.07    121.69   
    18. A(C   0,C   1,O   9)          121.62 -0.000385    0.06    121.68   
    19. A(H   7,C   5,H   8)          109.08  0.000142    0.07    109.15   
    20. A(H   6,C   5,H   8)          110.20  0.005316   -1.42    108.78   
    21. A(C   1,C   5,H   8)          109.56 -0.002219    0.25    109.81   
    22. A(H   6,C   5,H   7)          108.66 -0.000571    0.46    109.13   
    23. A(C   1,C   5,H   7)          109.70  0.001079    0.01    109.71   
    24. A(C   1,C   5,H   6)          109.63 -0.003704    0.62    110.25   
    25. D(O   9,C   1,C   0,H   3)     -6.00 -0.000969    1.46     -4.54   
    26. D(O   9,C   1,C   0,H   2)    113.72 -0.001414    1.68    115.40   
    27. D(C   5,C   1,C   0,H   2)    -64.93 -0.001040    0.29    -64.64   
    28. D(O   9,C   1,C   0,H   4)   -125.24  0.001405    0.48   -124.75   
    29. D(C   5,C   1,C   0,H   4)     56.11  0.001779   -0.90     55.21   
    30. D(C   5,C   1,C   0,H   3)    175.34 -0.000595    0.08    175.42   
    31. D(H   6,C   5,C   1,C   0)    -56.61 -0.001761    0.90    -55.71   
    32. D(H   8,C   5,C   1,O   9)   -114.22  0.001444   -1.68   -115.91   
    33. D(H   8,C   5,C   1,C   0)     64.43  0.001070   -0.30     64.13   
    34. D(H   7,C   5,C   1,O   9)      5.49  0.000915   -1.43      4.05   
    35. D(H   7,C   5,C   1,C   0)   -175.86  0.000541   -0.05   -175.91   
    36. D(H   6,C   5,C   1,O   9)    124.73 -0.001387   -0.48    124.25   
    ----------------------------------------------------------------------------

         *************************************************************
         *                GEOMETRY OPTIMIZATION CYCLE   2            *
         *************************************************************
---------------------------------
CARTESIAN COORDINATES (ANGSTROEM)
---------------------------------
  C     -0.007059   -0.005389    0.009298
  C      1.512277   -0.000410    0.013223
  H     -0.385994    1.037075   -0.003722
  H     -0.380497   -0.515631    0.916171
  H     -0.387309   -0.534775   -0.888113
  C      2.194805    0.569305   -1.218844
  H      1.846977    0.040333   -2.129562
  H      3.290054    0.450201   -1.126908
  H      1.953097    1.647409   -1.317852
  O      2.154746   -0.434693    0.961971

----------------------------
CARTESIAN COORDINATES (A.U.)
----------------------------
  NO LB      ZA    FRAG     MASS         X           Y           Z
   0 C     6.0000    0    12.011   -0.013340   -0.010184    0.017571
   1 C     6.0000    0    12.011    2.857789   -0.000775    0.024988
   2 H     1.0000    0     1.008   -0.729424    1.959788   -0.007034
   3 H     1.0000    0     1.008   -0.719035   -0.974401    1.731312
   4 H     1.0000    0     1.008   -0.731908   -1.010578   -1.678291
   5 C     6.0000    0    12.011    4.147580    1.075831   -2.303281
   6 H     1.0000    0     1.008    3.490280    0.076219   -4.024289
   7 H     1.0000    0     1.008    6.217302    0.850757   -2.129547
   8 H     1.0000    0     1.008    3.690818    3.113153   -2.490379
   9 O     8.0000    0    15.999    4.071879   -0.821451    1.817862

--------------------------------
INTERNAL COORDINATES (ANGSTROEM)
--------------------------------
 C      0   0   0     0.000000000000     0.00000000     0.00000000
 C      1   0   0     1.519349695511     0.00000000     0.00000000
 H      1   2   0     1.109276078435   109.78876304     0.00000000
 H      1   2   3     1.105540918631   109.70498816   240.05964380
 H      1   2   3     1.109137509172   110.27247905   119.84345194
 C      2   1   3     1.519344968834   116.63817849   295.36059773
 H      6   2   1     1.109145189937   110.25119937   304.29171287
 H      6   2   1     1.105536065108   109.70709875   184.09010382
 H      6   2   1     1.109294340616   109.81139943    64.13279599
 O      2   1   3     1.225353161711   121.67815720   115.40013416

---------------------------
INTERNAL COORDINATES (A.U.)
---------------------------
 C      0   0   0     0.000000000000     0.00000000     0.00000000
 C      1   0   0     2.871154826173     0.00000000     0.00000000
 H      1   2   0     2.096227995153   109.78876304     0.00000000
 H      1   2   3     2.089169566056   109.70498816   240.05964380
 H      1   2   3     2.095966137194   110.27247905   119.84345194
 C      2   1   3     2.871145894047   116.63817849   295.36059773
 H      6   2   1     2.095980651737   110.25119937   304.29171287
 H      6   2   1     2.089160394228   109.70709875   184.09010382
 H      6   2   1     2.096262505673   109.81139943    64.13279599
 O      2   1   3     2.315581892969   121.67815720   115.40013416



           ************************************************************
           *        Program running with 2 parallel MPI-processes     *
           *              working on a common directory               *
           ************************************************************
------------------------------------------------------------------------------
                   ___                                                        
                  /   \      - P O W E R E D   B Y -                         
                 /     \                                                     
                 |  |  |   _    _      __       _____    __    __             
                 |  |  |  | |  | |    /  \     |  _  \  |  |  /  |          
                  \  \/   | |  | |   /    \    | | | |  |  | /  /          
                 / \  \   | |__| |  /  /\  \   | |_| |  |  |/  /          
                |  |  |   |  __  | /  /__\  \  |    /   |      \           
                |  |  |   | |  | | |   __   |  |    \   |  |\   \          
                \     /   | |  | | |  |  |  |  | |\  \  |  | \   \       
                 \___/    |_|  |_| |__|  |__|  |_| \__\ |__|  \__/        
                                                                              
                      - O R C A' S   B I G   F R I E N D -                    
                                      &                                       
                       - I N T E G R A L  F E E D E R -                       
                                                                              
 v1 FN, 2020, v2 2021                                                         
------------------------------------------------------------------------------


Reading SHARK input file keto_enlo.SHARKINP.tmp ... ok
----------------------
SHARK INTEGRAL PACKAGE
----------------------

Number of atoms                             ...     10
Number of basis functions                   ...     86
Number of shells                            ...     42
Maximum angular momentum                    ...      2
Integral batch strategy                     ... SHARK/LIBINT Hybrid
RI-J (if used) integral strategy            ... SPLIT-RIJ (Revised 2003 algorithm where possible)
Printlevel                                  ...      1
Contraction scheme used                     ... SEGMENTED contraction
Coulomb Range Separation                    ... NOT USED
Exchange Range Separation                   ... NOT USED
Finite Nucleus Model                        ... NOT USED
Auxiliary Coulomb fitting basis             ... AVAILABLE
   # of basis functions in Aux-J            ...    262
   # of shells in Aux-J                     ...     90
   Maximum angular momentum in Aux-J        ...      4
Auxiliary J/K fitting basis                 ... NOT available
Auxiliary Correlation fitting basis         ... NOT available
Auxiliary 'external' fitting basis          ... NOT available
Integral threshold                          ...     2.500000e-11
Primitive cut-off                           ...     2.500000e-12
Primitive pair pre-selection threshold      ...     2.500000e-12

Calculating pre-screening integrals         ... done (  0.0 sec) Dimension = 42
Organizing shell pair data                  ... done (  0.0 sec)
Shell pair information
Total number of shell pairs                 ...       903
Shell pairs after pre-screening             ...       898
Total number of primitive shell pairs       ...      3151
Primitive shell pairs kept                  ...      2589
          la=0 lb=0:    297 shell pairs
          la=1 lb=0:    334 shell pairs
          la=1 lb=1:    105 shell pairs
          la=2 lb=0:     96 shell pairs
          la=2 lb=1:     56 shell pairs
          la=2 lb=2:     10 shell pairs

Calculating one electron integrals          ... done (  0.0 sec)
Calculating RI/J V-Matrix + Cholesky decomp.... done (  0.0 sec)
Calculating Nuclear repulsion               ... done (  0.0 sec) ENN=    118.497068752124 Eh

SHARK setup successfully completed in   0.1 seconds

Maximum memory used throughout the entire GTOINT-calculation: 9.6 MB


           ************************************************************
           *        Program running with 2 parallel MPI-processes     *
           *              working on a common directory               *
           ************************************************************

Diagonalization of the overlap matrix:
Smallest eigenvalue                        ... 3.509e-03
Time for diagonalization                   ...    0.001 sec
Threshold for overlap eigenvalues          ... 1.000e-08
Number of eigenvalues below threshold      ... 0
Time for construction of square roots      ...    0.001 sec
Total time needed                          ...    0.003 sec

-------------------
DFT GRID GENERATION
-------------------

General Integration Accuracy     IntAcc      ... 4.388
Radial Grid Type                 RadialGrid  ... OptM3 with GC (2021)
Angular Grid (max. ang.)         AngularGrid ... 4 (Lebedev-302)
Angular grid pruning method      GridPruning ... 4 (adaptive)
Weight generation scheme         WeightScheme... Becke
Basis function cutoff            BFCut       ... 1.0000e-11
Integration weight cutoff        WCut        ... 1.0000e-14
Angular grids for H and He will be reduced by one unit
Partially contracted basis set               ... off
Rotationally invariant grid construction     ... off

Total number of grid points                  ...    43777
Total number of batches                      ...      690
Average number of points per batch           ...       63
Average number of grid points per atom       ...     4378
Time for grid setup =    0.195 sec

--------------
SCF ITERATIONS
--------------
ITER       Energy         Delta-E        Max-DP      RMS-DP      [F,P]     Damp
               ***  Starting incremental Fock matrix formation  ***
  0   -193.0108022283   0.000000000000 0.00435722  0.00020043  0.0066871 0.7000
                      *** Initiating the SOSCF procedure ***
                      *** Re-Reading the Fockian *** 
                      *** Removing any level shift *** 
ITER      Energy       Delta-E        Grad      Rot      Max-DP    RMS-DP
  1   -193.01094635  -0.0001441259  0.000803  0.000803  0.011889  0.000534
               *** Restarting incremental Fock matrix formation ***
  2   -193.01122386  -0.0002775088  0.001723  0.006766  0.006745  0.000335
  3   -193.01108956   0.0001343060  0.005532  0.006005  0.006438  0.000273
  4   -193.01124917  -0.0001596099  0.000798  0.001555  0.002793  0.000136
  5   -193.01123586   0.0000133098  0.000887  0.000740  0.001859  0.000083
  6   -193.01125665  -0.0000207891  0.000014  0.000029  0.000094  0.000004
  7   -193.01125665   0.0000000011  0.000017  0.000019  0.000052  0.000002
                  ***Gradient check signals convergence***
              ***Rediagonalizing the Fockian in SOSCF/NRSCF***

               *****************************************************
               *                     SUCCESS                       *
               *           SCF CONVERGED AFTER   8 CYCLES          *
               *****************************************************

Total Energy       :         -193.01125665 Eh           -5252.10331 eV
  Last Energy change         ...   -5.7142e-09  Tolerance :   1.0000e-08
  Last MAX-Density change    ...    5.0618e-06  Tolerance :   1.0000e-07
             **** THE GBW FILE WAS UPDATED (keto_enlo.gbw) ****
             **** DENSITY keto_enlo.scfp WAS UPDATED ****
             **** ENERGY FILE WAS UPDATED (keto_enlo.en.tmp) ****
             **** THE GBW FILE WAS UPDATED (keto_enlo.gbw) ****
             **** DENSITY keto_enlo.scfp WAS UPDATED ****
Total SCF time: 0 days 0 hours 0 min 1 sec 

Maximum memory used throughout the entire SCF-calculation: 15.2 MB

-------------------------   --------------------
FINAL SINGLE POINT ENERGY      -193.011256650832
-------------------------   --------------------



           ************************************************************
           *        Program running with 2 parallel MPI-processes     *
           *              working on a common directory               *
           ************************************************************
------------------------------------------------------------------------------
                         ORCA SCF GRADIENT CALCULATION
------------------------------------------------------------------------------

Gradient of the Kohn-Sham DFT energy:
Kohn-Sham wavefunction type      ... RKS
Hartree-Fock exchange scaling    ...    0.000
Number of operators              ...    1
Number of atoms                  ...   10
Basis set dimensions             ...   86
Integral neglect threshold       ... 2.5e-11
Integral primitive cutoff        ... 2.5e-12
SHARK Integral package           ... ON

Nuc. rep. gradient       (SHARK) ... done (  0.0 sec)
HCore & Overlap gradient (SHARK) ... done (  0.0 sec)
RI-J gradient            (SHARK) ... done (  0.1 sec)
Exchange-correlation gradient    ... done

------------------
CARTESIAN GRADIENT
------------------

   1   C   :    0.000063219    0.002084400   -0.002025554
   2   C   :   -0.005178180    0.004305811   -0.007263073
   3   H   :    0.001707865   -0.000220074    0.002150488
   4   H   :   -0.000366628   -0.000448929   -0.000592047
   5   H   :    0.001624173   -0.002143868    0.001215624
   6   C   :   -0.002480059    0.001299664   -0.000712946
   7   H   :    0.001069164   -0.002254448    0.001540953
   8   H   :   -0.000137601   -0.000345747   -0.000693382
   9   H   :    0.001058985   -0.000355044    0.002551649
  10   O   :    0.002639063   -0.001921765    0.003828287

Difference to translation invariance:
           :   -0.0000000000    0.0000000000    0.0000000000

Difference to rotation invariance:
           :   -0.0000239697    0.0000075412    0.0000747956

Norm of the cartesian gradient     ...    0.0131979203
RMS gradient                       ...    0.0024095996
MAX gradient                       ...    0.0072630729

-------
TIMINGS
-------

Total SCF gradient time            ...        0.956 sec

One electron gradient       ....       0.017 sec  (  1.8%)
RI-J Coulomb gradient       ....       0.123 sec  ( 12.9%)
XC gradient                 ....       0.731 sec  ( 76.4%)

Maximum memory used throughout the entire SCFGRAD-calculation: 11.5 MB
------------------------------------------------------------------------------
                         ORCA GEOMETRY RELAXATION STEP
------------------------------------------------------------------------------

Reading the OPT-File                    .... done
Getting information on internals        .... done
Copying old internal coords+grads       .... done
Making the new internal coordinates     .... (new redundants).... done
Validating the new internal coordinates .... (new redundants).... done
Calculating the B-matrix                .... done
Calculating the G,G- and P matrices     .... done
Transforming gradient to internals      .... done
Projecting the internal gradient        .... done
Number of atoms                         ....  10
Number of internal coordinates          ....  36
Current Energy                          ....  -193.011256651 Eh
Current gradient norm                   ....     0.013197920 Eh/bohr
Maximum allowed component of the step   ....  0.300
Current trust radius                    ....  0.300
Updating the Hessian (BFGS)             .... done
Forming the augmented Hessian           .... done
Diagonalizing the augmented Hessian     .... done
Last element of RFO vector              ....  0.996366211
Lowest eigenvalues of augmented Hessian:
 -0.000436273  0.012362028  0.012439873  0.012827958  0.120584016
Length of the computed step             ....  0.085483236
The final length of the internal step   ....  0.085483236
Converting the step to cartesian space:
 Initial RMS(Int)=    0.0142472059
Transforming coordinates:
 Iter   0:  RMS(Cart)=    0.0171122768 RMS(Int)=    0.0141993989
 Iter   1:  RMS(Cart)=    0.0002106872 RMS(Int)=    0.0001587160
 Iter   2:  RMS(Cart)=    0.0000032411 RMS(Int)=    0.0000021709
 Iter   3:  RMS(Cart)=    0.0000000698 RMS(Int)=    0.0000000603
done
Storing new coordinates                 .... done

                                .--------------------.
          ----------------------|Geometry convergence|-------------------------
          Item                value                   Tolerance       Converged
          ---------------------------------------------------------------------
          Energy change      -0.0017892156            0.0000050000      NO
          RMS gradient        0.0015628031            0.0001000000      NO
          MAX gradient        0.0050289031            0.0003000000      NO
          RMS step            0.0142472059            0.0020000000      NO
          MAX step            0.0361376085            0.0040000000      NO
          ........................................................
          Max(Bonds)      0.0063      Max(Angles)    1.23
          Max(Dihed)        2.07      Max(Improp)    0.00
          ---------------------------------------------------------------------

The optimization has not yet converged - more geometry cycles are needed


    ---------------------------------------------------------------------------
                         Redundant Internal Coordinates
                            (Angstroem and degrees)

        Definition                    Value    dE/dq     Step     New-Value
    ----------------------------------------------------------------------------
     1. B(C   1,C   0)                1.5193 -0.003027  0.0063    1.5256   
     2. B(H   2,C   0)                1.1093 -0.000814  0.0031    1.1124   
     3. B(H   3,C   0)                1.1055 -0.000155  0.0014    1.1070   
     4. B(H   4,C   0)                1.1091 -0.000518  0.0025    1.1116   
     5. B(C   5,C   1)                1.5193 -0.003021  0.0062    1.5256   
     6. B(H   6,C   5)                1.1091 -0.000525  0.0025    1.1117   
     7. B(H   7,C   5)                1.1055 -0.000156  0.0014    1.1070   
     8. B(H   8,C   5)                1.1093 -0.000805  0.0031    1.1124   
     9. B(O   9,C   1)                1.2254  0.005029 -0.0037    1.2216   
    10. A(C   1,C   0,H   3)          109.70  0.000712    0.00    109.71   
    11. A(C   1,C   0,H   4)          110.27 -0.001865    0.44    110.71   
    12. A(C   1,C   0,H   2)          109.79 -0.001545    0.26    110.05   
    13. A(H   2,C   0,H   4)          108.78  0.003180   -1.22    107.56   
    14. A(H   3,C   0,H   4)          109.12 -0.000514    0.43    109.56   
    15. A(H   2,C   0,H   3)          109.15  0.000072    0.08    109.23   
    16. A(C   0,C   1,C   5)          116.64  0.000978   -0.20    116.43   
    17. A(C   5,C   1,O   9)          121.68 -0.000490    0.08    121.76   
    18. A(C   0,C   1,O   9)          121.68 -0.000488    0.08    121.76   
    19. A(H   7,C   5,H   8)          109.15  0.000051    0.10    109.24   
    20. A(H   6,C   5,H   8)          108.78  0.003190   -1.23    107.55   
    21. A(C   1,C   5,H   8)          109.81 -0.001585    0.27    110.09   
    22. A(H   6,C   5,H   7)          109.12 -0.000494    0.42    109.54   
    23. A(C   1,C   5,H   7)          109.71  0.000709    0.00    109.71   
    24. A(C   1,C   5,H   6)          110.25 -0.001834    0.43    110.68   
    25. D(O   9,C   1,C   0,H   3)     -4.54 -0.000258   -0.06     -4.60   
    26. D(O   9,C   1,C   0,H   2)    115.40 -0.000686    0.20    115.60   
    27. D(C   5,C   1,C   0,H   2)    -64.64 -0.001032    2.06    -62.58   
    28. D(O   9,C   1,C   0,H   4)   -124.76  0.001100   -0.87   -125.62   
    29. D(C   5,C   1,C   0,H   4)     55.20  0.000754    1.00     56.20   
    30. D(C   5,C   1,C   0,H   3)    175.42 -0.000604    1.80    177.22   
    31. D(H   6,C   5,C   1,C   0)    -55.71 -0.000743   -1.00    -56.71   
    32. D(H   8,C   5,C   1,O   9)   -115.91  0.000705   -0.21   -116.11   
    33. D(H   8,C   5,C   1,C   0)     64.13  0.001051   -2.07     62.06   
    34. D(H   7,C   5,C   1,O   9)      4.05  0.000226    0.08      4.13   
    35. D(H   7,C   5,C   1,C   0)   -175.91  0.000572   -1.78   -177.69   
    36. D(H   6,C   5,C   1,O   9)    124.25 -0.001089    0.86    125.11   
    ----------------------------------------------------------------------------

         *************************************************************
         *                GEOMETRY OPTIMIZATION CYCLE   3            *
         *************************************************************
---------------------------------
CARTESIAN COORDINATES (ANGSTROEM)
---------------------------------
  C     -0.008416   -0.009051    0.013435
  C      1.517150   -0.019994    0.012794
  H     -0.382291    1.038139   -0.017812
  H     -0.384812   -0.503304    0.929646
  H     -0.405718   -0.533890   -0.882367
  C      2.200175    0.567553   -1.218341
  H      1.859649    0.049351   -2.141012
  H      3.298094    0.465720   -1.120386
  H      1.939678    1.643960   -1.322555
  O      2.157587   -0.445058    0.962261

----------------------------
CARTESIAN COORDINATES (A.U.)
----------------------------
  NO LB      ZA    FRAG     MASS         X           Y           Z
   0 C     6.0000    0    12.011   -0.015905   -0.017104    0.025388
   1 C     6.0000    0    12.011    2.866997   -0.037784    0.024177
   2 H     1.0000    0     1.008   -0.722426    1.961798   -0.033660
   3 H     1.0000    0     1.008   -0.727188   -0.951106    1.756776
   4 H     1.0000    0     1.008   -0.766695   -1.008905   -1.667432
   5 C     6.0000    0    12.011    4.157727    1.072520   -2.302330
   6 H     1.0000    0     1.008    3.514228    0.093259   -4.045927
   7 H     1.0000    0     1.008    6.232494    0.880082   -2.117223
   8 H     1.0000    0     1.008    3.665460    3.106635   -2.499267
   9 O     8.0000    0    15.999    4.077248   -0.841037    1.818411

--------------------------------
INTERNAL COORDINATES (ANGSTROEM)
--------------------------------
 C      0   0   0     0.000000000000     0.00000000     0.00000000
 C      1   0   0     1.525605410618     0.00000000     0.00000000
 H      1   2   0     1.112369051989   110.04994177     0.00000000
 H      1   2   3     1.106978455947   109.70374031   239.79875509
 H      1   2   3     1.111649685140   110.71154256   118.77336399
 C      2   1   3     1.525590827775   116.44105393   297.42478230
 H      6   2   1     1.111671982942   110.67829403   303.29445073
 H      6   2   1     1.106974130997   109.70706417   182.30846588
 H      6   2   1     1.112371959668   110.08624263    62.06119599
 O      2   1   3     1.221608667608   121.76341086   115.60181507

---------------------------
INTERNAL COORDINATES (A.U.)
---------------------------
 C      0   0   0     0.000000000000     0.00000000     0.00000000
 C      1   0   0     2.882976414497     0.00000000     0.00000000
 H      1   2   0     2.102072868109   110.04994177     0.00000000
 H      1   2   3     2.091886117892   109.70374031   239.79875509
 H      1   2   3     2.100713461774   110.71154256   118.77336399
 C      2   1   3     2.882948856917   116.44105393   297.42478230
 H      6   2   1     2.100755598513   110.67829403   303.29445073
 H      6   2   1     2.091877944919   109.70706417   182.30846588
 H      6   2   1     2.102078362825   110.08624263    62.06119599
 O      2   1   3     2.308505824604   121.76341086   115.60181507



           ************************************************************
           *        Program running with 2 parallel MPI-processes     *
           *              working on a common directory               *
           ************************************************************
------------------------------------------------------------------------------
                   ___                                                        
                  /   \      - P O W E R E D   B Y -                         
                 /     \                                                     
                 |  |  |   _    _      __       _____    __    __             
                 |  |  |  | |  | |    /  \     |  _  \  |  |  /  |          
                  \  \/   | |  | |   /    \    | | | |  |  | /  /          
                 / \  \   | |__| |  /  /\  \   | |_| |  |  |/  /          
                |  |  |   |  __  | /  /__\  \  |    /   |      \           
                |  |  |   | |  | | |   __   |  |    \   |  |\   \          
                \     /   | |  | | |  |  |  |  | |\  \  |  | \   \       
                 \___/    |_|  |_| |__|  |__|  |_| \__\ |__|  \__/        
                                                                              
                      - O R C A' S   B I G   F R I E N D -                    
                                      &                                       
                       - I N T E G R A L  F E E D E R -                       
                                                                              
 v1 FN, 2020, v2 2021                                                         
------------------------------------------------------------------------------


Reading SHARK input file keto_enlo.SHARKINP.tmp ... ok
----------------------
SHARK INTEGRAL PACKAGE
----------------------

Number of atoms                             ...     10
Number of basis functions                   ...     86
Number of shells                            ...     42
Maximum angular momentum                    ...      2
[...]
 Convergence forced     ConvForced      .... 0
 Energy Change          TolE            ....  1.000e-08 Eh
 1-El. energy change                    ....  1.000e-05 Eh
 Orbital Gradient       TolG            ....  1.000e-05
 Orbital Rotation angle TolX            ....  1.000e-05
 DIIS Error             TolErr          ....  5.000e-07


Diagonalization of the overlap matrix:
Smallest eigenvalue                        ... 3.661e-03
Time for diagonalization                   ...    0.001 sec
Threshold for overlap eigenvalues          ... 1.000e-08
Number of eigenvalues below threshold      ... 0
Time for construction of square roots      ...    0.001 sec
Total time needed                          ...    0.003 sec

---------------------
INITIAL GUESS: MOREAD
---------------------
Guess MOs are being read from file: keto_enlo.gbw
Input Geometry matches current geometry (good)
Input basis set matches current basis set (good)
MOs were renormalized
MOs were reorthogonalized (Cholesky)
                      ------------------
                      INITIAL GUESS DONE (   0.0 sec)
                      ------------------
-------------------
DFT GRID GENERATION
-------------------

General Integration Accuracy     IntAcc      ... 4.388
Radial Grid Type                 RadialGrid  ... OptM3 with GC (2021)
Angular Grid (max. ang.)         AngularGrid ... 4 (Lebedev-302)
Angular grid pruning method      GridPruning ... 4 (adaptive)
Weight generation scheme         WeightScheme... Becke
Basis function cutoff            BFCut       ... 1.0000e-11
Integration weight cutoff        WCut        ... 1.0000e-14
Angular grids for H and He will be reduced by one unit
Partially contracted basis set               ... off
Rotationally invariant grid construction     ... off

Total number of grid points                  ...    43770
Total number of batches                      ...      688
Average number of points per batch           ...       63
Average number of grid points per atom       ...     4377
Time for grid setup =    0.199 sec

--------------
SCF ITERATIONS
--------------
ITER       Energy         Delta-E        Max-DP      RMS-DP      [F,P]     Damp
               ***  Starting incremental Fock matrix formation  ***
                      *** Initiating the SOSCF procedure ***
                      *** Re-Reading the Fockian *** 
                      *** Removing any level shift *** 
ITER      Energy       Delta-E        Grad      Rot      Max-DP    RMS-DP
  0   -193.01159811 -193.0115981099  0.000191  0.000191  0.000384  0.000018
               *** Restarting incremental Fock matrix formation ***
  1   -193.01159908  -0.0000009689  0.000080  0.000303  0.000298  0.000016
  2   -193.01159893   0.0000001481  0.000250  0.000267  0.000301  0.000012
  3   -193.01159919  -0.0000002549  0.000030  0.000131  0.000070  0.000004
  4   -193.01159920  -0.0000000108  0.000013  0.000036  0.000020  0.000001
  5   -193.01159920  -0.0000000014  0.000003  0.000007  0.000013  0.000001
  6   -193.01159920   0.0000000002  0.000003  0.000006  0.000006  0.000000
                  ***Gradient check signals convergence***
              ***Rediagonalizing the Fockian in SOSCF/NRSCF***

               *****************************************************
               *                     SUCCESS                       *
               *           SCF CONVERGED AFTER   7 CYCLES          *
               *****************************************************


----------------
TOTAL SCF ENERGY
----------------

Total Energy       :         -193.01159920 Eh           -5252.11263 eV

Components:
Nuclear Repulsion  :          118.34431265 Eh            3220.31246 eV
Electronic Energy  :         -311.35591185 Eh           -8472.42509 eV
One Electron Energy:         -495.10753408 Eh          -13472.56093 eV
Two Electron Energy:          183.75162223 Eh            5000.13584 eV

Virial components:
Potential Energy   :         -383.86931098 Eh          -10445.61500 eV
Kinetic Energy     :          190.85771178 Eh            5193.50237 eV
Virial Ratio       :            2.01128530


DFT components:
N(Alpha)           :       15.999995064200 electrons
N(Beta)            :       15.999995064200 electrons
N(Total)           :       31.999990128399 electrons
E(X)               :      -25.867400667327 Eh       
E(C)               :       -1.139777355131 Eh       
E(XC)              :      -27.007178022458 Eh       
DFET-embed. en.    :        0.000000000000 Eh       

---------------
SCF CONVERGENCE
---------------

  Last Energy change         ...    5.0792e-10  Tolerance :   1.0000e-08
  Last MAX-Density change    ...    8.0174e-07  Tolerance :   1.0000e-07
  Last RMS-Density change    ...    5.4433e-08  Tolerance :   5.0000e-09
  Last Orbital Gradient      ...    4.5925e-07  Tolerance :   1.0000e-05
  Last Orbital Rotation      ...    5.6251e-07  Tolerance :   1.0000e-05

             **** THE GBW FILE WAS UPDATED (keto_enlo.gbw) ****
             **** DENSITY keto_enlo.scfp WAS UPDATED ****
             **** ENERGY FILE WAS UPDATED (keto_enlo.en.tmp) ****
             **** THE GBW FILE WAS UPDATED (keto_enlo.gbw) ****
             **** DENSITY keto_enlo.scfp WAS UPDATED ****
----------------
ORBITAL ENERGIES
----------------

  NO   OCC          E(Eh)            E(eV) 
   0   2.0000     -18.765091      -510.6241 
   1   2.0000      -9.998353      -272.0690 
   2   2.0000      -9.922497      -270.0049 
   3   2.0000      -9.922486      -270.0046 
   4   2.0000      -0.937265       -25.5043 
   5   2.0000      -0.690486       -18.7891 
   6   2.0000      -0.635588       -17.2952 
   7   2.0000      -0.471897       -12.8410 
   8   2.0000      -0.412901       -11.2356 
   9   2.0000      -0.410278       -11.1642 
  10   2.0000      -0.396850       -10.7988 
  11   2.0000      -0.358588        -9.7577 
  12   2.0000      -0.346874        -9.4389 
  13   2.0000      -0.334748        -9.1090 
  14   2.0000      -0.312229        -8.4962 
  15   2.0000      -0.202898        -5.5211 
  16   0.0000      -0.056408        -1.5349 
  17   0.0000       0.032684         0.8894 
  18   0.0000       0.086299         2.3483 
  19   0.0000       0.088339         2.4038 
  20   0.0000       0.097110         2.6425 
  21   0.0000       0.118585         3.2269 
  22   0.0000       0.120550         3.2803 
  23   0.0000       0.149257         4.0615 
  24   0.0000       0.233362         6.3501 
  25   0.0000       0.243516         6.6264 
  26   0.0000       0.366111         9.9624 
  27   0.0000       0.403127        10.9696 
  28   0.0000       0.420267        11.4360 
  29   0.0000       0.432552        11.7703 
  30   0.0000       0.449362        12.2278 
  31   0.0000       0.527252        14.3473 
  32   0.0000       0.553767        15.0688 
  33   0.0000       0.563778        15.3412 
  34   0.0000       0.585383        15.9291 
  35   0.0000       0.594489        16.1769 
  36   0.0000       0.597013        16.2456 
  37   0.0000       0.605637        16.4802 
  38   0.0000       0.621718        16.9178 
  39   0.0000       0.630144        17.1471 
  40   0.0000       0.648685        17.6516 
  41   0.0000       0.653820        17.7914 
  42   0.0000       0.763049        20.7636 
  43   0.0000       0.869536        23.6613 
  44   0.0000       0.947194        25.7745 
  45   0.0000       0.947807        25.7911 
  46   0.0000       1.062007        28.8987 
  47   0.0000       1.110575        30.2203 
  48   0.0000       1.234866        33.6024 
  49   0.0000       1.271098        34.5883 
  50   0.0000       1.370697        37.2986 
  51   0.0000       1.440411        39.1956 
  52   0.0000       1.440870        39.2081 
  53   0.0000       1.478530        40.2328 
  54   0.0000       1.524762        41.4909 
  55   0.0000       1.537899        41.8483 
  56   0.0000       1.613591        43.9080 
  57   0.0000       1.615005        43.9465 
  58   0.0000       1.687442        45.9176 
  59   0.0000       1.694069        46.0980 
  60   0.0000       1.711403        46.5696 
  61   0.0000       1.714891        46.6645 
  62   0.0000       1.743546        47.4443 
  63   0.0000       1.837108        49.9902 
  64   0.0000       1.894983        51.5651 
  65   0.0000       1.956287        53.2333 
  66   0.0000       1.998134        54.3720 
  67   0.0000       2.067862        56.2694 
  68   0.0000       2.214287        60.2538 
  69   0.0000       2.241760        61.0014 
  70   0.0000       2.262513        61.5661 
  71   0.0000       2.353779        64.0496 
  72   0.0000       2.359971        64.2181 
  73   0.0000       2.373219        64.5786 
  74   0.0000       2.528429        68.8020 
  75   0.0000       2.566195        69.8297 
  76   0.0000       2.598722        70.7148 
  77   0.0000       2.616751        71.2054 
  78   0.0000       2.724282        74.1315 
  79   0.0000       2.779730        75.6403 
  80   0.0000       2.794455        76.0410 
  81   0.0000       2.847775        77.4919 
  82   0.0000       2.912475        79.2525 
  83   0.0000       3.051995        83.0490 
  84   0.0000       3.265942        88.8708 
  85   0.0000       3.496566        95.1464 

                    ********************************
                    * MULLIKEN POPULATION ANALYSIS *
                    ********************************

-----------------------
MULLIKEN ATOMIC CHARGES
-----------------------
   0 C :   -0.037397
   1 C :   -0.058826
   2 H :    0.051317
   3 H :    0.051679
   4 H :    0.051207
   5 C :   -0.037489
   6 H :    0.051448
   7 H :    0.051680
   8 H :    0.051066
   9 O :   -0.174686
Sum of atomic charges:   -0.0000000

--------------------------------
MULLIKEN REDUCED ORBITAL CHARGES
--------------------------------
  0 C s       :     3.007722  s :     3.007722
      pz      :     1.020453  p :     3.008227
      px      :     0.976569
      py      :     1.011205
      dz2     :     0.004811  d :     0.021448
      dxz     :     0.003842
      dyz     :     0.003685
      dx2y2   :     0.005949
      dxy     :     0.003161
  1 C s       :     3.195405  s :     3.195405
      pz      :     0.928687  p :     2.772975
      px      :     1.015558
      py      :     0.828730
      dz2     :     0.025465  d :     0.090445
      dxz     :     0.022593
      dyz     :     0.014333
      dx2y2   :     0.016081
      dxy     :     0.011974
  2 H s       :     0.925680  s :     0.925680
      pz      :     0.005480  p :     0.023003
      px      :     0.005613
      py      :     0.011910
  3 H s       :     0.926752  s :     0.926752
      pz      :     0.010809  p :     0.021568
      px      :     0.004509
      py      :     0.006251
  4 H s       :     0.925796  s :     0.925796
      pz      :     0.009801  p :     0.022997
      px      :     0.005785
      py      :     0.007412
  5 C s       :     3.007763  s :     3.007763
      pz      :     0.986592  p :     3.008278
      px      :     1.019137
      py      :     1.002549
      dz2     :     0.005179  d :     0.021447
      dxz     :     0.003806
      dyz     :     0.004084
      dx2y2   :     0.005935
      dxy     :     0.002443
  6 H s       :     0.925544  s :     0.925544
      pz      :     0.010450  p :     0.023008
      px      :     0.005482
      py      :     0.007076
  7 H s       :     0.926752  s :     0.926752
      pz      :     0.004238  p :     0.021569
      px      :     0.012706
      py      :     0.004625
  8 H s       :     0.925942  s :     0.925942
      pz      :     0.005227  p :     0.022991
      px      :     0.005400
      py      :     0.012364
  9 O s       :     3.759436  s :     3.759436
      pz      :     1.422040  p :     4.398228
      px      :     1.660295
      py      :     1.315892
      dz2     :     0.004372  d :     0.017022
      dxz     :     0.004598
      dyz     :     0.003797
      dx2y2   :     0.001931
      dxy     :     0.002325


                     *******************************
                     * LOEWDIN POPULATION ANALYSIS *
                     *******************************

----------------------
LOEWDIN ATOMIC CHARGES
----------------------
   0 C :   -0.099222
   1 C :    0.064017
   2 H :    0.046856
   3 H :    0.041544
   4 H :    0.046771
   5 C :   -0.099248
   6 H :    0.046957
   7 H :    0.041549
   8 H :    0.046658
   9 O :   -0.135882

-------------------------------
LOEWDIN REDUCED ORBITAL CHARGES
-------------------------------
  0 C s       :     2.868012  s :     2.868012
      pz      :     1.070822  p :     3.169530
      px      :     1.034032
      py      :     1.064676
      dz2     :     0.013840  d :     0.061679
      dxz     :     0.010309
      dyz     :     0.010284
      dx2y2   :     0.018620
      dxy     :     0.008626
  1 C s       :     2.896766  s :     2.896766
      pz      :     0.975465  p :     2.832619
      px      :     1.035057
      py      :     0.822097
      dz2     :     0.058210  d :     0.206598
      dxz     :     0.053723
      dyz     :     0.032495
      dx2y2   :     0.037512
      dxy     :     0.024658
  2 H s       :     0.887719  s :     0.887719
      pz      :     0.012490  p :     0.065425
      px      :     0.016829
      py      :     0.036106
  3 H s       :     0.893358  s :     0.893358
      pz      :     0.032928  p :     0.065098
      px      :     0.015246
      py      :     0.016924
  4 H s       :     0.887811  s :     0.887811
      pz      :     0.029114  p :     0.065418
      px      :     0.017429
      py      :     0.018875
  5 C s       :     2.868021  s :     2.868021
      pz      :     1.045630  p :     3.169551
      px      :     1.065491
      py      :     1.058430
      dz2     :     0.015136  d :     0.061676
      dxz     :     0.010984
      dyz     :     0.012276
      dx2y2   :     0.017152
      dxy     :     0.006128
  6 H s       :     0.887624  s :     0.887624
      pz      :     0.032596  p :     0.065420
      px      :     0.014221
      py      :     0.018604
  7 H s       :     0.893353  s :     0.893353
      pz      :     0.011701  p :     0.065098
      px      :     0.041722
      py      :     0.011675
  8 H s       :     0.887921  s :     0.887921
      pz      :     0.013882  p :     0.065421
      px      :     0.013913
      py      :     0.037626
  9 O s       :     3.559284  s :     3.559284
      pz      :     1.503220  p :     4.546635
      px      :     1.705539
      py      :     1.337876
      dz2     :     0.006993  d :     0.029962
      dxz     :     0.009314
      dyz     :     0.006838
      dx2y2   :     0.002966
      dxy     :     0.003852


                      *****************************
                      * MAYER POPULATION ANALYSIS *
                      *****************************

  NA   - Mulliken gross atomic population
  ZA   - Total nuclear charge
  QA   - Mulliken gross atomic charge
  VA   - Mayer's total valence
  BVA  - Mayer's bonded valence
  FA   - Mayer's free valence

  ATOM       NA         ZA         QA         VA         BVA        FA
  0 C      6.0374     6.0000    -0.0374     3.8268     3.8268     0.0000
  1 C      6.0588     6.0000    -0.0588     4.3099     4.3099    -0.0000
  2 H      0.9487     1.0000     0.0513     0.9935     0.9935     0.0000
  3 H      0.9483     1.0000     0.0517     1.0159     1.0159     0.0000
  4 H      0.9488     1.0000     0.0512     0.9935     0.9935     0.0000
  5 C      6.0375     6.0000    -0.0375     3.8269     3.8269     0.0000
  6 H      0.9486     1.0000     0.0514     0.9935     0.9935    -0.0000
  7 H      0.9483     1.0000     0.0517     1.0159     1.0159    -0.0000
  8 H      0.9489     1.0000     0.0511     0.9935     0.9935     0.0000
  9 O      8.1747     8.0000    -0.1747     2.2988     2.2988    -0.0000

  Mayer bond orders larger than 0.100000
B(  0-C ,  1-C ) :   1.0039 B(  0-C ,  2-H ) :   0.9461 B(  0-C ,  3-H ) :   0.9534 
B(  0-C ,  4-H ) :   0.9463 B(  1-C ,  5-C ) :   1.0039 B(  1-C ,  9-O ) :   2.1779 
B(  5-C ,  6-H ) :   0.9461 B(  5-C ,  7-H ) :   0.9534 B(  5-C ,  8-H ) :   0.9463 


-------
TIMINGS
-------

Total SCF time: 0 days 0 hours 0 min 1 sec 

Total time                  ....       1.395 sec
Sum of individual times     ....       1.288 sec  ( 92.3%)

Fock matrix formation       ....       1.067 sec  ( 76.5%)
  Split-RI-J                ....       0.213 sec  ( 20.0% of F)
  XC integration            ....       0.855 sec  ( 80.1% of F)
    Basis function eval.    ....       0.328 sec  ( 38.4% of XC)
    Density eval.           ....       0.219 sec  ( 25.7% of XC)
    XC-Functional eval.     ....       0.098 sec  ( 11.4% of XC)
    XC-Potential eval.      ....       0.134 sec  ( 15.7% of XC)
Diagonalization             ....       0.002 sec  (  0.1%)
Density matrix formation    ....       0.001 sec  (  0.0%)
Population analysis         ....       0.005 sec  (  0.4%)
Initial guess               ....       0.002 sec  (  0.1%)
Orbital Transformation      ....       0.000 sec  (  0.0%)
Orbital Orthonormalization  ....       0.001 sec  (  0.1%)
DIIS solution               ....       0.001 sec  (  0.1%)
SOSCF solution              ....       0.010 sec  (  0.7%)
Grid generation             ....       0.199 sec  ( 14.3%)

Maximum memory used throughout the entire SCF-calculation: 15.2 MB

-------------------------   --------------------
FINAL SINGLE POINT ENERGY      -193.011599197029
-------------------------   --------------------

                                *** OPTIMIZATION RUN DONE ***

                            ***************************************
                            *     ORCA property calculations      *
                            ***************************************

                                    ---------------------
                                    Active property flags
                                    ---------------------
   (+) Dipole Moment


------------------------------------------------------------------------------
                       ORCA ELECTRIC PROPERTIES CALCULATION
------------------------------------------------------------------------------

Dipole Moment Calculation                       ... on
Quadrupole Moment Calculation                   ... off
Polarizability Calculation                      ... off
GBWName                                         ... keto_enlo.gbw
Electron density                                ... keto_enlo.scfp
The origin for moment calculation is the CENTER OF MASS  = ( 2.769892,  0.019474 -0.123003)

-------------
DIPOLE MOMENT
-------------
                                X             Y             Z
Electronic contribution:      2.12569      -1.59496       3.06524
Nuclear contribution   :     -2.68963       2.01763      -3.87843
                        -----------------------------------------
Total Dipole Moment    :     -0.56394       0.42267      -0.81319
                        -----------------------------------------
Magnitude (a.u.)       :      1.07608
Magnitude (Debye)      :      2.73519



--------------------
Rotational spectrum 
--------------------
 
Rotational constants in cm-1:     0.332616     0.280053     0.161337 
Rotational constants in MHz :  9971.586353  8395.791316  4836.750764 

 Dipole components along the rotational axes: 
x,y,z [a.u.] :     0.000107    -1.076083    -0.000506 
x,y,z [Debye]:     0.000273    -2.735186    -0.001287 

 

Timings for individual modules:

Sum of individual times         ...       46.250 sec (=   0.771 min)
GTO integral calculation        ...        8.012 sec (=   0.134 min)  17.3 %
SCF iterations                  ...       24.082 sec (=   0.401 min)  52.1 %
SCF Gradient evaluation         ...       13.618 sec (=   0.227 min)  29.4 %
Geometry relaxation             ...        0.538 sec (=   0.009 min)   1.2 %
                             ****ORCA TERMINATED NORMALLY****
TOTAL RUN TIME: 0 days 0 hours 0 minutes 50 seconds 784 msec
