
                                 *****************
                                 * O   R   C   A *
                                 *****************

                                            #,                                       
                                            ###                                      
                                            ####                                     
                                            #####                                    
                                            ######                                   
                                           ########,                                 
                                     ,,################,,,,,                         
                               ,,#################################,,                 
                          ,,##########################################,,             
                       ,#########################################, ''#####,          
                    ,#############################################,,   '####,        
                  ,##################################################,,,,####,       
                ,###########''''           ''''###############################       
              ,#####''   ,,,,##########,,,,          '''####'''          '####       
            ,##' ,,,,###########################,,,                        '##       
           ' ,,###''''                  '''############,,,                           
         ,,##''                                '''############,,,,        ,,,,,,###''
      ,#''                                            '''#######################'''  
     '                                                          ''''####''''         
             ,#######,   #######,   ,#######,      ##                                
            ,#'     '#,  ##    ##  ,#'     '#,    #''#        ######   ,####,        
            ##       ##  ##   ,#'  ##            #'  '#       #        #'  '#        
            ##       ##  #######   ##           ,######,      #####,   #    #        
            '#,     ,#'  ##    ##  '#,     ,#' ,#      #,         ##   #,  ,#        
             '#######'   ##     ##  '#######'  #'      '#     #####' # '####'        



                  #######################################################
                  #                        -***-                        #
                  #          Department of theory and spectroscopy      #
                  #    Directorship and core code : Frank Neese         #
                  #        Max Planck Institute fuer Kohlenforschung    #
                  #                Kaiser Wilhelm Platz 1               #
                  #                 D-45470 Muelheim/Ruhr               #
                  #                      Germany                        #
                  #                                                     #
                  #                  All rights reserved                #
                  #                        -***-                        #
                  #######################################################


                         Program Version 5.0.4 -  RELEASE  -


 With contributions from (in alphabetic order):
   Daniel Aravena         : Magnetic Suceptibility
   Michael Atanasov       : Ab Initio Ligand Field Theory (pilot matlab implementation)
   Alexander A. Auer      : GIAO ZORA, VPT2 properties, NMR spectrum
   Ute Becker             : Parallelization
   Giovanni Bistoni       : ED, misc. LED, open-shell LED, HFLD
   Martin Brehm           : Molecular dynamics
   Dmytro Bykov           : SCF Hessian
   Vijay G. Chilkuri      : MRCI spin determinant printing, contributions to CSF-ICE
   Dipayan Datta          : RHF DLPNO-CCSD density
   Achintya Kumar Dutta   : EOM-CC, STEOM-CC
   Dmitry Ganyushin       : Spin-Orbit,Spin-Spin,Magnetic field MRCI
   Miquel Garcia          : C-PCM and meta-GGA Hessian, CC/C-PCM, Gaussian charge scheme
   Yang Guo               : DLPNO-NEVPT2, F12-NEVPT2, CIM, IAO-localization
   Andreas Hansen         : Spin unrestricted coupled pair/coupled cluster methods
   Benjamin Helmich-Paris : MC-RPA, TRAH-SCF, COSX integrals
   Lee Huntington         : MR-EOM, pCC
   Robert Izsak           : Overlap fitted RIJCOSX, COSX-SCS-MP3, EOM
   Marcus Kettner         : VPT2
   Christian Kollmar      : KDIIS, OOCD, Brueckner-CCSD(T), CCSD density, CASPT2, CASPT2-K
   Simone Kossmann        : Meta GGA functionals, TD-DFT gradient, OOMP2, MP2 Hessian
   Martin Krupicka        : Initial AUTO-CI
   Lucas Lang             : DCDCAS
   Marvin Lechner         : AUTO-CI (C++ implementation), FIC-MRCC
   Dagmar Lenk            : GEPOL surface, SMD
   Dimitrios Liakos       : Extrapolation schemes; Compound Job, initial MDCI parallelization
   Dimitrios Manganas     : Further ROCIS development; embedding schemes
   Dimitrios Pantazis     : SARC Basis sets
   Anastasios Papadopoulos: AUTO-CI, single reference methods and gradients
   Taras Petrenko         : DFT Hessian,TD-DFT gradient, ASA, ECA, R-Raman, ABS, FL, XAS/XES, NRVS
   Peter Pinski           : DLPNO-MP2, DLPNO-MP2 Gradient
   Christoph Reimann      : Effective Core Potentials
   Marius Retegan         : Local ZFS, SOC
   Christoph Riplinger    : Optimizer, TS searches, QM/MM, DLPNO-CCSD(T), (RO)-DLPNO pert. Triples
   Tobias Risthaus        : Range-separated hybrids, TD-DFT gradient, RPA, STAB
   Michael Roemelt        : Original ROCIS implementation
   Masaaki Saitow         : Open-shell DLPNO-CCSD energy and density
   Barbara Sandhoefer     : DKH picture change effects
   Avijit Sen             : IP-ROCIS
   Kantharuban Sivalingam : CASSCF convergence, NEVPT2, FIC-MRCI
   Bernardo de Souza      : ESD, SOC TD-DFT
   Georgi Stoychev        : AutoAux, RI-MP2 NMR, DLPNO-MP2 response
   Willem Van den Heuvel  : Paramagnetic NMR
   Boris Wezisla          : Elementary symmetry handling
   Frank Wennmohs         : Technical directorship


 We gratefully acknowledge several colleagues who have allowed us to
 interface, adapt or use parts of their codes:
   Stefan Grimme, W. Hujo, H. Kruse, P. Pracht,  : VdW corrections, initial TS optimization,
                  C. Bannwarth, S. Ehlert          DFT functionals, gCP, sTDA/sTD-DF
   Ed Valeev, F. Pavosevic, A. Kumar             : LibInt (2-el integral package), F12 methods
   Garnet Chan, S. Sharma, J. Yang, R. Olivares  : DMRG
   Ulf Ekstrom                                   : XCFun DFT Library
   Mihaly Kallay                                 : mrcc  (arbitrary order and MRCC methods)
   Jiri Pittner, Ondrej Demel                    : Mk-CCSD
   Frank Weinhold                                : gennbo (NPA and NBO analysis)
   Christopher J. Cramer and Donald G. Truhlar   : smd solvation model
   Lars Goerigk                                  : TD-DFT with DH, B97 family of functionals
   V. Asgeirsson, H. Jonsson                     : NEB implementation
   FAccTs GmbH                                   : IRC, NEB, NEB-TS, DLPNO-Multilevel, CI-OPT
                                                   MM, QMMM, 2- and 3-layer-ONIOM, Crystal-QMMM,
                                                   LR-CPCM, SF, NACMEs, symmetry and pop. for TD-DFT,
                                                   nearIR, NL-DFT gradient (VV10), updates on ESD,
                                                   ML-optimized integration grids
   S Lehtola, MJT Oliveira, MAL Marques          : LibXC Library
   Liviu Ungur et al                             : ANISO software


 Your calculation uses the libint2 library for the computation of 2-el integrals
 For citations please refer to: http://libint.valeyev.net

 Your ORCA version has been built with support for libXC version: 5.1.0
 For citations please refer to: https://tddft.org/programs/libxc/

 This ORCA versions uses:
   CBLAS   interface :  Fast vector & matrix operations
   LAPACKE interface :  Fast linear algebra routines
   SCALAPACK package :  Parallel linear algebra routines
   Shared memory     :  Shared parallel matrices
   BLAS/LAPACK       :  OpenBLAS 0.3.15  USE64BITINT DYNAMIC_ARCH NO_AFFINITY Sandybridge SINGLE_THREADED
        Core in use  :  Sandybridge
   Copyright (c) 2011-2014, The OpenBLAS Project


================================================================================

----- Orbital basis set information -----
Your calculation utilizes the basis: def2-SVP
   F. Weigend and R. Ahlrichs, Phys. Chem. Chem. Phys. 7, 3297 (2005).

================================================================================
                                        WARNINGS
                       Please study these warnings very carefully!
================================================================================

WARNING: Old DensityContainer found on disk!
         Will remove this file - 
         If you want to keep old densities, please start your calculation with a different basename. 


WARNING: Geometry Optimization
  ===> : Switching off AutoStart
         For restart on a previous wavefunction, please use MOREAD

INFO   : the flag for use of the SHARK integral package has been found!

================================================================================
                                       INPUT FILE
================================================================================
NAME = test.inp
|  1> !Opt def2-svp tightscf
|  2> !UHF
|  3> !ALLPOP
|  4> !PAL4
|  5> 
|  6> *xyz -9 6 
|  7>                 Cr        0.00000        0.00000        0.00000
|  8>                 O        1.53192        1.18654        0.95167
|  9>                 O       -1.53192       -1.18654       -0.95167
| 10>                 O        1.33207       -0.39454       -1.65235
| 11>                 O       -1.33207        0.39454        1.65235
| 12>                 O       -0.73426        1.75977       -1.01213
| 13>                 O        0.73426       -1.75977        1.01213
| 14> *
| 15> 
| 16>                          ****END OF INPUT****
================================================================================

                       *****************************
                       * Geometry Optimization Run *
                       *****************************

Geometry optimization settings:
Update method            Update   .... BFGS
Choice of coordinates    CoordSys .... Z-matrix Internals
Initial Hessian          InHess   .... Almoef's Model

Convergence Tolerances:
Energy Change            TolE     ....  5.0000e-06 Eh
Max. Gradient            TolMAXG  ....  3.0000e-04 Eh/bohr
RMS Gradient             TolRMSG  ....  1.0000e-04 Eh/bohr
Max. Displacement        TolMAXD  ....  4.0000e-03 bohr
RMS Displacement         TolRMSD  ....  2.0000e-03 bohr
Strict Convergence                ....  False
------------------------------------------------------------------------------
                        ORCA OPTIMIZATION COORDINATE SETUP
------------------------------------------------------------------------------

The optimization will be done in new redundant internal coordinates
Making redundant internal coordinates   ...  (new redundants) done
Evaluating the initial hessian          ...  (Almloef) done
Evaluating the coordinates              ...  done
Calculating the B-matrix                .... done
Calculating the G-matrix                .... done
Diagonalizing the G-matrix              .... done
The first mode is                       ....    3
The number of degrees of freedom        ....   15

    -----------------------------------------------------------------
                    Redundant Internal Coordinates


    -----------------------------------------------------------------
         Definition                    Initial Value    Approx d2E/dq
    -----------------------------------------------------------------
      1. B(O   1,Cr  0)                  2.1588         0.336094   
      2. B(O   2,Cr  0)                  2.1588         0.336094   
      3. B(O   3,Cr  0)                  2.1588         0.336094   
      4. B(O   4,Cr  0)                  2.1588         0.336094   
      5. B(O   5,Cr  0)                  2.1588         0.336093   
      6. B(O   6,Cr  0)                  2.1588         0.336093   
      7. A(O   2,Cr  0,O   3)           89.9999         0.433788   
      8. A(O   1,Cr  0,O   4)           89.9999         0.433788   
      9. A(O   2,Cr  0,O   4)           90.0001         0.433788   
     10. A(O   1,Cr  0,O   5)           90.0000         0.433788   
     11. A(O   2,Cr  0,O   5)           90.0000         0.433788   
     12. A(O   3,Cr  0,O   5)           89.9999         0.433788   
     13. A(O   4,Cr  0,O   5)           90.0001         0.433788   
     14. A(O   1,Cr  0,O   6)           90.0000         0.433788   
     15. A(O   2,Cr  0,O   6)           90.0000         0.433788   
     16. A(O   3,Cr  0,O   6)           90.0001         0.433788   
     17. A(O   4,Cr  0,O   6)           89.9999         0.433788   
     18. A(O   1,Cr  0,O   3)           90.0001         0.433788   
    -----------------------------------------------------------------

Number of atoms                         .... 7
Number of degrees of freedom            .... 18

         *************************************************************
         *                GEOMETRY OPTIMIZATION CYCLE   1            *
         *************************************************************
---------------------------------
CARTESIAN COORDINATES (ANGSTROEM)
---------------------------------
  Cr     0.000000    0.000000    0.000000
  O      1.531920    1.186540    0.951670
  O     -1.531920   -1.186540   -0.951670
  O      1.332070   -0.394540   -1.652350
  O     -1.332070    0.394540    1.652350
  O     -0.734260    1.759770   -1.012130
  O      0.734260   -1.759770    1.012130

----------------------------
CARTESIAN COORDINATES (A.U.)
----------------------------
  NO LB      ZA    FRAG     MASS         X           Y           Z
   0 Cr   24.0000    0    52.000    0.000000    0.000000    0.000000
   1 O     8.0000    0    15.999    2.894909    2.242236    1.798396
   2 O     8.0000    0    15.999   -2.894909   -2.242236   -1.798396
   3 O     8.0000    0    15.999    2.517247   -0.745573   -3.122489
   4 O     8.0000    0    15.999   -2.517247    0.745573    3.122489
   5 O     8.0000    0    15.999   -1.387550    3.325483   -1.912649
   6 O     8.0000    0    15.999    1.387550   -3.325483    1.912649

--------------------------------
INTERNAL COORDINATES (ANGSTROEM)
--------------------------------
 Cr     0   0   0     0.000000000000     0.00000000     0.00000000
 O      1   0   0     2.158780175678     0.00000000     0.00000000
 O      1   2   0     2.158780175678   180.00000000     0.00000000
 O      1   2   3     2.158780400828    90.00005830     0.00000000
 O      1   2   4     2.158780400828    89.99994170   180.00000000
 O      1   2   5     2.158780984120    90.00004722    90.00009382
 O      1   2   5     2.158780984120    89.99995278   270.00009382

---------------------------
INTERNAL COORDINATES (A.U.)
---------------------------
 Cr     0   0   0     0.000000000000     0.00000000     0.00000000
 O      1   0   0     4.079503315370     0.00000000     0.00000000
 O      1   2   0     4.079503315370   180.00000000     0.00000000
 O      1   2   3     4.079503740842    90.00005830     0.00000000
 O      1   2   4     4.079503740842    89.99994170   180.00000000
 O      1   2   5     4.079504843105    90.00004722    90.00009382
 O      1   2   5     4.079504843105    89.99995278   270.00009382

---------------------
BASIS SET INFORMATION
---------------------
There are 2 groups of distinct atoms

 Group   1 Type Cr  : 14s9p5d1f contracted to 5s3p2d1f pattern {63311/531/41/1}
 Group   2 Type O   : 7s4p1d contracted to 3s2p1d pattern {511/31/1}

Atom   0Cr   basis set group =>   1
Atom   1O    basis set group =>   2
Atom   2O    basis set group =>   2
Atom   3O    basis set group =>   2
Atom   4O    basis set group =>   2
Atom   5O    basis set group =>   2
Atom   6O    basis set group =>   2


           ************************************************************
           *        Program running with 4 parallel MPI-processes     *
           *              working on a common directory               *
           ************************************************************
------------------------------------------------------------------------------
                           ORCA GTO INTEGRAL CALCULATION
------------------------------------------------------------------------------
------------------------------------------------------------------------------
                   ___                                                        
                  /   \      - P O W E R E D   B Y -                         
                 /     \                                                     
                 |  |  |   _    _      __       _____    __    __             
                 |  |  |  | |  | |    /  \     |  _  \  |  |  /  |          
                  \  \/   | |  | |   /    \    | | | |  |  | /  /          
                 / \  \   | |__| |  /  /\  \   | |_| |  |  |/  /          
                |  |  |   |  __  | /  /__\  \  |    /   |      \           
                |  |  |   | |  | | |   __   |  |    \   |  |\   \          
                \     /   | |  | | |  |  |  |  | |\  \  |  | \   \       
                 \___/    |_|  |_| |__|  |__|  |_| \__\ |__|  \__/        
                                                                              
                      - O R C A' S   B I G   F R I E N D -                    
                                      &                                       
                       - I N T E G R A L  F E E D E R -                       
                                                                              
 v1 FN, 2020, v2 2021                                                         
------------------------------------------------------------------------------


Reading SHARK input file test.SHARKINP.tmp ... ok
----------------------
SHARK INTEGRAL PACKAGE
----------------------

Number of atoms                             ...      7
Number of basis functions                   ...    115
Number of shells                            ...     47
Maximum angular momentum                    ...      3
Integral batch strategy                     ... SHARK/LIBINT Hybrid
RI-J (if used) integral strategy            ... SPLIT-RIJ (Revised 2003 algorithm where possible)
Printlevel                                  ...      1
Contraction scheme used                     ... SEGMENTED contraction
Coulomb Range Separation                    ... NOT USED
Exchange Range Separation                   ... NOT USED
Finite Nucleus Model                        ... NOT USED
Auxiliary Coulomb fitting basis             ... NOT available
Auxiliary J/K fitting basis                 ... NOT available
Auxiliary Correlation fitting basis         ... NOT available
Auxiliary 'external' fitting basis          ... NOT available
Integral threshold                          ...     2.500000e-11
Primitive cut-off                           ...     2.500000e-12
Primitive pair pre-selection threshold      ...     2.500000e-12

Calculating pre-screening integrals         ... done (  0.0 sec) Dimension = 47
Organizing shell pair data                  ... done (  0.0 sec)
Shell pair information
Total number of shell pairs                 ...      1128
Shell pairs after pre-screening             ...      1002
Total number of primitive shell pairs       ...      5269
Primitive shell pairs kept                  ...      3313
          la=0 lb=0:    240 shell pairs
          la=1 lb=0:    303 shell pairs
          la=1 lb=1:    117 shell pairs
          la=2 lb=0:    148 shell pairs
          la=2 lb=1:    114 shell pairs
          la=2 lb=2:     33 shell pairs
          la=3 lb=0:     23 shell pairs
          la=3 lb=1:     15 shell pairs
          la=3 lb=2:      8 shell pairs
          la=3 lb=3:      1 shell pairs

Calculating one electron integrals          ... done (  0.0 sec)
Calculating Nuclear repulsion               ... done (  0.0 sec) ENN=    439.038182751199 Eh

SHARK setup successfully completed in   0.2 seconds

Maximum memory used throughout the entire GTOINT-calculation: 13.5 MB


           ************************************************************
           *        Program running with 4 parallel MPI-processes     *
           *              working on a common directory               *
           ************************************************************
-------------------------------------------------------------------------------
                                 ORCA SCF
-------------------------------------------------------------------------------

------------
SCF SETTINGS
------------
Hamiltonian:
 Ab initio Hamiltonian  Method          .... Hartree-Fock(GTOs)


General Settings:
 Integral files         IntName         .... test
 Hartree-Fock type      HFTyp           .... UHF
 Total Charge           Charge          ....   -9
 Multiplicity           Mult            ....    6
 Number of Electrons    NEL             ....   81
 Basis Dimension        Dim             ....  115
 Nuclear Repulsion      ENuc            ....    439.0381827512 Eh

Convergence Acceleration:
 DIIS                   CNVDIIS         .... on
   Start iteration      DIISMaxIt       ....    12
   Startup error        DIISStart       ....  0.200000
   # of expansion vecs  DIISMaxEq       ....     5
   Bias factor          DIISBfac        ....   1.050
   Max. coefficient     DIISMaxC        ....  10.000
 Trust-Rad. Augm. Hess. CNVTRAH         .... auto
   Auto Start mean grad. ratio tolernc. ....  1.125000
   Auto Start start iteration           ....    20
   Auto Start num. interpolation iter.  ....    10
   Max. Number of Micro iterations      ....    16
   Max. Number of Macro iterations      .... Maxiter - #DIIS iter
   Number of Davidson start vectors     ....     2
   Converg. threshold I  (grad. norm)   ....   1.000e-05
   Converg. threshold II (energy diff.) ....   1.000e-08
   Grad. Scal. Fac. for Micro threshold ....   0.100
   Minimum threshold for Micro iter.    ....   0.010
   NR start threshold (gradient norm)   ....   0.001
   Initial trust radius                 ....   0.400
   Minimum AH scaling param. (alpha)    ....   1.000
   Maximum AH scaling param. (alpha)    .... 1000.000
   Orbital update algorithm             .... Taylor
   White noise on init. David. guess    .... on
   Maximum white noise                  ....   0.010
   Quad. conv. algorithm                .... NR
 SOSCF                  CNVSOSCF        .... off
 Level Shifting         CNVShift        .... on
   Level shift para.    LevelShift      ....    0.2500
   Turn off err/grad.   ShiftErr        ....    0.0010
 Zerner damping         CNVZerner       .... off
 Static damping         CNVDamp         .... on
   Fraction old density DampFac         ....    0.7000
   Max. Damping (<1)    DampMax         ....    0.9800
   Min. Damping (>=0)   DampMin         ....    0.0000
   Turn off err/grad.   DampErr         ....    0.1000
 Fernandez-Rico         CNVRico         .... off

SCF Procedure:
 Maximum # iterations   MaxIter         ....   125
 SCF integral mode      SCFMode         .... Direct
   Integral package                     .... SHARK and LIBINT hybrid scheme
 Reset frequency        DirectResetFreq ....    20
 Integral Threshold     Thresh          ....  2.500e-11 Eh
 Primitive CutOff       TCut            ....  2.500e-12 Eh

Convergence Tolerance:
 Convergence Check Mode ConvCheckMode   .... Total+1el-Energy
 Convergence forced     ConvForced      .... 0
 Energy Change          TolE            ....  1.000e-08 Eh
 1-El. energy change                    ....  1.000e-05 Eh
 DIIS Error             TolErr          ....  5.000e-07


Diagonalization of the overlap matrix:
Smallest eigenvalue                        ... 2.778e-02
Time for diagonalization                   ...    0.002 sec
Threshold for overlap eigenvalues          ... 1.000e-08
Number of eigenvalues below threshold      ... 0
Time for construction of square roots      ...    0.001 sec
Total time needed                          ...    0.003 sec

Time for model grid setup =    0.057 sec

------------------------------
INITIAL GUESS: MODEL POTENTIAL
------------------------------
Loading Hartree-Fock densities                     ... done
Calculating cut-offs                               ... done
Initializing the effective Hamiltonian             ... done
Setting up the integral package (SHARK)            ... done
Starting the Coulomb interaction                   ... done (   0.0 sec)
Reading the grid                                   ... done
Mapping shells                                     ... done
Starting the XC term evaluation                    ... done (   0.0 sec)
Transforming the Hamiltonian                       ... done (   0.0 sec)
Diagonalizing the Hamiltonian                      ... done (   0.0 sec)
Back transforming the eigenvectors                 ... done (   0.0 sec)
Now organizing SCF variables                       ... done
                      ------------------
                      INITIAL GUESS DONE (   0.1 sec)
                      ------------------
--------------
SCF ITERATIONS
--------------
ITER       Energy         Delta-E        Max-DP      RMS-DP      [F,P]     Damp
               ***  Starting incremental Fock matrix formation  ***
  0  -1483.0876924036   0.000000000000 1.40728776  0.01676466  0.2404012 0.7000
  1  -1483.9034708392  -0.815778435578 0.98181132  0.01170292  0.1438366 0.7000
                               ***Turning on DIIS***
  2  -1484.3683139460  -0.464843106826 2.27911102  0.02705994  0.0784931 0.0000
  3  -1480.1750640976   4.193249848361 0.03863365  0.00188475  0.0828490 0.0000
  4  -1484.4660700104  -4.291005912760 0.02912192  0.00111134  0.0400366 0.0000
  5  -1485.0096010820  -0.543531071621 0.01709747  0.00069618  0.0170419 0.0000
  6  -1485.3264196364  -0.316818554366 0.01450979  0.00075970  0.0119535 0.0000
  7  -1485.5253286864  -0.198909049995 0.00795202  0.00037938  0.0085159 0.0000
  8  -1485.5277951424  -0.002466456059 0.00585611  0.00027305  0.0046411 0.0000
  9  -1485.5030506455   0.024744496932 0.00351594  0.00014407  0.0023840 0.0000
 10  -1485.5084071837  -0.005356538198 0.00211439  0.00008093  0.0010730 0.0000
 11  -1485.5023625339   0.006044649841 0.00199810  0.00006590  0.0005052 0.0000
 12  -1485.5051041228  -0.002741588961 0.00081256  0.00002049  0.0002311 0.0000
 13  -1485.5071713191  -0.002067196320 0.00039141  0.00001108  0.0000924 0.0000
 14  -1485.5075420654  -0.000370746307 0.00021479  0.00000481  0.0000541 0.0000
 15  -1485.5081306774  -0.000588611908 0.00008880  0.00000202  0.0000338 0.0000
 16  -1485.5082311330  -0.000100455669 0.00003884  0.00000130  0.0000314 0.0000
 17  -1485.5082349330  -0.000003799987 0.00004251  0.00000123  0.0000291 0.0000
 18  -1485.5082544159  -0.000019482894 0.00005444  0.00000153  0.0000265 0.0000
 19  -1485.5082464899   0.000007926024 0.00006558  0.00000185  0.0000229 0.0000
               *** Restarting incremental Fock matrix formation ***
                                   *** Resetting DIIS ***
 20  -1485.5082708439  -0.000024354053 0.00001302  0.00000036  0.0000183 0.0000
 21  -1485.5082729820  -0.000002138090 0.00002080  0.00000056  0.0000175 0.0000
 22  -1485.5082772327  -0.000004250662 0.00004687  0.00000126  0.0000161 0.0000
 23  -1485.5082825675  -0.000005334809 0.00005813  0.00000156  0.0000131 0.0000
 24  -1485.5082831276  -0.000000560087 0.00005434  0.00000147  0.0000092 0.0000
 25  -1485.5082789359   0.000004191690 0.00004682  0.00000128  0.0000055 0.0000
 26  -1485.5082715957   0.000007340148 0.00002095  0.00000060  0.0000027 0.0000
 27  -1485.5082674153   0.000004180414 0.00000476  0.00000014  0.0000029 0.0000
 28  -1485.5082665511   0.000000864223 0.00000466  0.00000009  0.0000026 0.0000
 29  -1485.5082666555  -0.000000104403 0.00000474  0.00000008  0.0000023 0.0000
 30  -1485.5082686662  -0.000002010661 0.00000371  0.00000006  0.0000019 0.0000
 31  -1485.5082696861  -0.000001019923 0.00000365  0.00000005  0.0000016 0.0000
 32  -1485.5082702639  -0.000000577785 0.00000433  0.00000006  0.0000014 0.0000
 33  -1485.5082705289  -0.000000264997 0.00000581  0.00000009  0.0000011 0.0000
                            ***DIIS convergence achieved***

               *****************************************************
               *                     SUCCESS                       *
               *           SCF CONVERGED AFTER  34 CYCLES          *
               *****************************************************


----------------
TOTAL SCF ENERGY
----------------

Total Energy       :        -1485.50827123 Eh          -40422.73511 eV

Components:
Nuclear Repulsion  :          439.03818275 Eh           11946.83632 eV
Electronic Energy  :        -1924.54645398 Eh          -52369.57143 eV
One Electron Energy:        -3056.85156329 Eh          -83181.15989 eV
Two Electron Energy:         1132.30510931 Eh           30811.58846 eV

Virial components:
Potential Energy   :        -2974.03831884 Eh          -80927.69694 eV
Kinetic Energy     :         1488.53004761 Eh           40504.96183 eV
Virial Ratio       :            1.99796996


---------------
SCF CONVERGENCE
---------------

  Last Energy change         ...   -7.0102e-07  Tolerance :   1.0000e-08
  Last MAX-Density change    ...    4.1967e-06  Tolerance :   1.0000e-07
  Last RMS-Density change    ...    6.4931e-08  Tolerance :   5.0000e-09
  Last DIIS Error            ...    7.0684e-07  Tolerance :   5.0000e-07

             **** THE GBW FILE WAS UPDATED (test.gbw) ****
             **** DENSITY test.scfp WAS UPDATED ****
             **** ENERGY FILE WAS UPDATED (test.en.tmp) ****
----------------------
UHF SPIN CONTAMINATION
----------------------

Expectation value of <S**2>     :     8.775293
Ideal value S*(S+1) for S=2.5   :     8.750000
Deviation                       :     0.025293

             **** THE GBW FILE WAS UPDATED (test.gbw) ****
             **** DENSITY test.scfp WAS UPDATED ****
----------------
ORBITAL ENERGIES
----------------
                 SPIN UP ORBITALS
  NO   OCC          E(Eh)            E(eV) 
   0   1.0000    -219.089327     -5961.7237 
   1   1.0000     -24.970012      -679.4686 
   2   1.0000     -20.906393      -568.8919 
   3   1.0000     -20.906257      -568.8882 
   4   1.0000     -20.906229      -568.8874 
   5   1.0000     -18.976975      -516.3898 
   6   1.0000     -18.976972      -516.3897 
   7   1.0000     -18.724730      -509.5258 
   8   1.0000     -18.724725      -509.5257 
   9   1.0000     -18.722169      -509.4561 
  10   1.0000     -18.722163      -509.4560 
  11   1.0000      -2.003158       -54.5087 
  12   1.0000      -0.778886       -21.1946 
  13   1.0000      -0.768668       -20.9165 
  14   1.0000      -0.768175       -20.9031 
  15   1.0000       0.327298         8.9062 
  16   1.0000       0.329884         8.9766 
  17   1.0000       0.608333        16.5536 
  18   1.0000       0.618971        16.8430 
  19   1.0000       0.621576        16.9139 
  20   1.0000       0.623297        16.9608 
  21   1.0000       0.968617        26.3574 
  22   1.0000       0.980212        26.6729 
  23   1.0000       1.023062        27.8389 
  24   1.0000       1.034616        28.1533 
  25   1.0000       1.053556        28.6687 
  26   1.0000       1.054300        28.6890 
  27   1.0000       1.057954        28.7884 
  28   1.0000       1.068231        29.0680 
  29   1.0000       1.092498        29.7284 
  30   1.0000       1.215871        33.0855 
  31   1.0000       1.283473        34.9251 
  32   1.0000       1.285453        34.9789 
  33   1.0000       1.290061        35.1043 
  34   1.0000       1.291707        35.1491 
  35   1.0000       1.297660        35.3111 
  36   1.0000       1.299364        35.3575 
  37   1.0000       1.313835        35.7513 
  38   1.0000       1.315257        35.7900 
  39   1.0000       1.316712        35.8296 
  40   1.0000       1.335688        36.3459 
  41   1.0000       1.336232        36.3607 
  42   1.0000       1.339868        36.4597 
  43   0.0000       1.858331        50.5678 
  44   0.0000       1.870174        50.8900 
  45   0.0000       2.055547        55.9343 
  46   0.0000       2.102504        57.2120 
  47   0.0000       2.147397        58.4336 
  48   0.0000       2.158820        58.7445 
  49   0.0000       2.443956        66.5034 
  50   0.0000       2.462283        67.0021 
  51   0.0000       2.513164        68.3867 
  52   0.0000       2.581815        70.2548 
  53   0.0000       2.628318        71.5202 
  54   0.0000       2.737027        74.4783 
  55   0.0000       2.751926        74.8837 
  56   0.0000       2.786254        75.8178 
  57   0.0000       2.802231        76.2526 
  58   0.0000       2.838503        77.2396 
  59   0.0000       2.855684        77.7071 
  60   0.0000       2.862422        77.8905 
  61   0.0000       2.880623        78.3857 
  62   0.0000       2.974563        80.9420 
  63   0.0000       2.995997        81.5252 
  64   0.0000       3.019982        82.1779 
  65   0.0000       3.036789        82.6352 
  66   0.0000       3.040944        82.7483 
  67   0.0000       3.042918        82.8020 
  68   0.0000       3.045325        82.8675 
  69   0.0000       3.046759        82.9065 
  70   0.0000       3.075043        83.6762 
  71   0.0000       3.085702        83.9662 
  72   0.0000       3.196030        86.9684 
  73   0.0000       3.335333        90.7590 
  74   0.0000       3.335728        90.7698 
  75   0.0000       3.474787        94.5538 
  76   0.0000       3.479154        94.6726 
  77   0.0000       3.766353       102.4877 
  78   0.0000       4.490256       122.1861 
  79   0.0000       4.521882       123.0467 
  80   0.0000       4.522689       123.0686 
  81   0.0000       4.527258       123.1930 
  82   0.0000       4.551318       123.8476 
  83   0.0000       4.558886       124.0536 
  84   0.0000       4.571329       124.3922 
  85   0.0000       4.609528       125.4316 
  86   0.0000       4.629763       125.9823 
  87   0.0000       4.739529       128.9691 
  88   0.0000       4.741219       129.0151 
  89   0.0000       4.768657       129.7617 
  90   0.0000       4.786183       130.2387 
  91   0.0000       4.809321       130.8683 
  92   0.0000       4.815470       131.0356 
  93   0.0000       4.815870       131.0465 
  94   0.0000       4.817107       131.0801 
  95   0.0000       4.817683       131.0958 
  96   0.0000       4.818010       131.1047 
  97   0.0000       4.818205       131.1100 
  98   0.0000       4.819527       131.1460 
  99   0.0000       4.832481       131.4985 
 100   0.0000       4.840741       131.7233 
 101   0.0000       4.851298       132.0105 
 102   0.0000       4.854848       132.1071 
 103   0.0000       4.897358       133.2639 
 104   0.0000       4.907284       133.5340 
 105   0.0000       4.913111       133.6925 
 106   0.0000       4.917017       133.7988 
 107   0.0000       4.919640       133.8702 
 108   0.0000       4.920357       133.8897 
 109   0.0000       4.966899       135.1562 
 110   0.0000       5.142355       139.9306 
 111   0.0000       5.152218       140.1990 
 112   0.0000       5.201126       141.5298 
 113   0.0000       5.202855       141.5769 
 114   0.0000       5.260558       143.1470 

                 SPIN DOWN ORBITALS
  NO   OCC          E(Eh)            E(eV) 
   0   1.0000    -219.088424     -5961.6991 
   1   1.0000     -24.894018      -677.4007 
   2   1.0000     -20.832094      -566.8701 
   3   1.0000     -20.830226      -566.8193 
   4   1.0000     -20.830136      -566.8168 
   5   1.0000     -18.940918      -515.4086 
   6   1.0000     -18.940914      -515.4085 
   7   1.0000     -18.724399      -509.5168 
   8   1.0000     -18.724395      -509.5167 
   9   1.0000     -18.722233      -509.4579 
  10   1.0000     -18.722228      -509.4577 
  11   1.0000      -1.759742       -47.8850 
  12   1.0000      -0.487068       -13.2538 
  13   1.0000      -0.469881       -12.7861 
  14   1.0000      -0.469056       -12.7637 
  15   1.0000       0.485359        13.2073 
  16   1.0000       0.489590        13.3224 
  17   1.0000       0.609646        16.5893 
  18   1.0000       0.620226        16.8772 
  19   1.0000       0.621654        16.9161 
  20   1.0000       0.624008        16.9801 
  21   1.0000       1.072283        29.1783 
  22   1.0000       1.092847        29.7379 
  23   1.0000       1.108519        30.1643 
  24   1.0000       1.111313        30.2404 
  25   1.0000       1.219392        33.1814 
  26   1.0000       1.282975        34.9115 
  27   1.0000       1.283663        34.9303 
  28   1.0000       1.284087        34.9418 
  29   1.0000       1.288098        35.0509 
  30   1.0000       1.289142        35.0793 
  31   1.0000       1.307916        35.5902 
  32   1.0000       1.310243        35.6535 
  33   1.0000       1.317843        35.8603 
  34   1.0000       1.327832        36.1321 
  35   1.0000       1.330912        36.2160 
  36   1.0000       1.332903        36.2701 
  37   1.0000       1.345189        36.6045 
  38   0.0000       1.714304        46.6486 
  39   0.0000       1.714318        46.6490 
  40   0.0000       1.933920        52.6246 
  41   0.0000       1.941809        52.8393 
  42   0.0000       1.942667        52.8627 
  43   0.0000       1.955283        53.2060 
  44   0.0000       1.968307        53.5604 
  45   0.0000       2.083375        56.6915 
  46   0.0000       2.138833        58.2006 
  47   0.0000       2.179230        59.2999 
  48   0.0000       2.193390        59.6852 
  49   0.0000       2.577867        70.1473 
  50   0.0000       2.602308        70.8124 
  51   0.0000       2.618277        71.2469 
  52   0.0000       2.627399        71.4952 
  53   0.0000       2.664408        72.5022 
  54   0.0000       2.744615        74.6848 
  55   0.0000       2.818459        76.6942 
  56   0.0000       2.843754        77.3825 
  57   0.0000       2.869486        78.0827 
  58   0.0000       2.876520        78.2741 
  59   0.0000       2.891711        78.6874 
  60   0.0000       2.938400        79.9579 
  61   0.0000       2.955016        80.4101 
  62   0.0000       2.981518        81.1312 
  63   0.0000       3.011510        81.9474 
  64   0.0000       3.039639        82.7128 
  65   0.0000       3.049369        82.9776 
  66   0.0000       3.049679        82.9860 
  67   0.0000       3.057512        83.1991 
  68   0.0000       3.058275        83.2199 
  69   0.0000       3.058875        83.2362 
  70   0.0000       3.088142        84.0326 
  71   0.0000       3.093173        84.1695 
  72   0.0000       3.222767        87.6960 
  73   0.0000       3.333013        90.6959 
  74   0.0000       3.368475        91.6609 
  75   0.0000       3.483205        94.7828 
  76   0.0000       3.485117        94.8348 
  77   0.0000       3.779343       102.8412 
  78   0.0000       4.574716       124.4843 
  79   0.0000       4.625563       125.8680 
  80   0.0000       4.641314       126.2966 
  81   0.0000       4.641880       126.3120 
  82   0.0000       4.644342       126.3790 
  83   0.0000       4.644750       126.3901 
  84   0.0000       4.648467       126.4912 
  85   0.0000       4.657723       126.7431 
  86   0.0000       4.675936       127.2387 
  87   0.0000       4.757442       129.4566 
  88   0.0000       4.758470       129.4846 
  89   0.0000       4.794050       130.4527 
  90   0.0000       4.795572       130.4942 
  91   0.0000       4.806860       130.8013 
  92   0.0000       4.819451       131.1439 
  93   0.0000       4.820187       131.1639 
  94   0.0000       4.821003       131.1862 
  95   0.0000       4.821075       131.1881 
  96   0.0000       4.821394       131.1968 
  97   0.0000       4.822021       131.2139 
  98   0.0000       4.822848       131.2364 
  99   0.0000       4.839568       131.6913 
 100   0.0000       4.877380       132.7203 
 101   0.0000       4.879566       132.7797 
 102   0.0000       4.910776       133.6290 
 103   0.0000       4.915995       133.7710 
 104   0.0000       4.918736       133.8456 
 105   0.0000       4.968068       135.1880 
 106   0.0000       5.071690       138.0077 
 107   0.0000       5.072371       138.0262 
 108   0.0000       5.073974       138.0699 
 109   0.0000       5.076863       138.1485 
 110   0.0000       5.168625       140.6454 
 111   0.0000       5.225967       142.2058 
 112   0.0000       5.261813       143.1812 
 113   0.0000       5.274391       143.5235 
 114   0.0000       5.274937       143.5383 

                    ********************************
                    * MULLIKEN POPULATION ANALYSIS *
                    ********************************

--------------------------------------------
MULLIKEN ATOMIC CHARGES AND SPIN POPULATIONS
--------------------------------------------
   0 Cr:   -0.638028    3.052607
   1 O :   -0.915936    1.000741
   2 O :   -0.915936    1.000741
   3 O :   -1.633534   -0.016541
   4 O :   -1.633534   -0.016541
   5 O :   -1.631516   -0.010503
   6 O :   -1.631516   -0.010503
Sum of atomic charges         :   -9.0000000
Sum of atomic spin populations:    5.0000000

-----------------------------------------------------
MULLIKEN REDUCED ORBITAL CHARGES AND SPIN POPULATIONS
-----------------------------------------------------
CHARGE
  0 Crs       :     8.435684  s :     8.435684
      pz      :     4.201274  p :    12.561679
      px      :     4.172422
      py      :     4.187983
      dz2     :     0.937899  d :     3.636088
      dxz     :     0.504900
      dyz     :     0.698616
      dx2y2   :     0.871831
      dxy     :     0.622842
      f0      :     0.000580  f :     0.004577
      f+1     :     0.000757
      f-1     :     0.000303
      f+2     :     0.000850
      f-2     :     0.001049
      f+3     :     0.000519
      f-3     :     0.000518
  1 O s       :     3.948192  s :     3.948192
      pz      :     1.277799  p :     4.966528
      px      :     1.956734
      py      :     1.731995
      dz2     :     0.000345  d :     0.001217
      dxz     :     0.000118
      dyz     :     0.000502
      dx2y2   :     0.000175
      dxy     :     0.000078
  2 O s       :     3.948192  s :     3.948192
      pz      :     1.277799  p :     4.966528
      px      :     1.956734
      py      :     1.731995
      dz2     :     0.000345  d :     0.001217
      dxz     :     0.000118
      dyz     :     0.000502
      dx2y2   :     0.000175
      dxy     :     0.000078
  3 O s       :     3.909006  s :     3.909006
      pz      :     1.871643  p :     5.724316
      px      :     1.896454
      py      :     1.956220
      dz2     :     0.000053  d :     0.000211
      dxz     :     0.000058
      dyz     :     0.000045
      dx2y2   :     0.000025
      dxy     :     0.000031
  4 O s       :     3.909006  s :     3.909006
      pz      :     1.871643  p :     5.724316
      px      :     1.896454
      py      :     1.956220
      dz2     :     0.000053  d :     0.000211
      dxz     :     0.000058
      dyz     :     0.000045
      dx2y2   :     0.000025
      dxy     :     0.000031
  5 O s       :     3.909131  s :     3.909131
      pz      :     1.930521  p :     5.722174
      px      :     1.938015
      py      :     1.853639
      dz2     :     0.000040  d :     0.000211
      dxz     :     0.000028
      dyz     :     0.000056
      dx2y2   :     0.000039
      dxy     :     0.000048
  6 O s       :     3.909131  s :     3.909131
      pz      :     1.930521  p :     5.722174
      px      :     1.938015
      py      :     1.853639
      dz2     :     0.000040  d :     0.000211
      dxz     :     0.000028
      dyz     :     0.000056
      dx2y2   :     0.000039
      dxy     :     0.000048

SPIN
  0 Crs       :     0.027817  s :     0.027817
      pz      :     0.007283  p :     0.016311
      px      :     0.002562
      py      :     0.006466
      dz2     :     0.839611  d :     3.007273
      dxz     :     0.333871
      dyz     :     0.559568
      dx2y2   :     0.765939
      dxy     :     0.508285
      f0      :     0.000119  f :     0.001206
      f+1     :     0.000292
      f-1     :     0.000025
      f+2     :     0.000254
      f-2     :     0.000258
      f+3     :     0.000166
      f-3     :     0.000092
  1 O s       :     0.012856  s :     0.012856
      pz      :     0.714738  p :     0.988063
      px      :     0.019385
      py      :     0.253940
      dz2     :    -0.000043  d :    -0.000178
      dxz     :    -0.000025
      dyz     :    -0.000177
      dx2y2   :     0.000021
      dxy     :     0.000045
  2 O s       :     0.012856  s :     0.012856
      pz      :     0.714738  p :     0.988063
      px      :     0.019385
      py      :     0.253940
      dz2     :    -0.000043  d :    -0.000178
      dxz     :    -0.000025
      dyz     :    -0.000177
      dx2y2   :     0.000021
      dxy     :     0.000045
  3 O s       :    -0.003811  s :    -0.003811
      pz      :    -0.017815  p :    -0.012791
      px      :    -0.004210
      py      :     0.009234
      dz2     :     0.000024  d :     0.000061
      dxz     :    -0.000006
      dyz     :     0.000020
      dx2y2   :     0.000010
      dxy     :     0.000013
  4 O s       :    -0.003811  s :    -0.003811
      pz      :    -0.017815  p :    -0.012791
      px      :    -0.004210
      py      :     0.009234
      dz2     :     0.000024  d :     0.000061
      dxz     :    -0.000006
      dyz     :     0.000020
      dx2y2   :     0.000010
      dxy     :     0.000013
  5 O s       :    -0.003371  s :    -0.003371
      pz      :    -0.000537  p :    -0.007195
      px      :     0.009322
      py      :    -0.015979
      dz2     :     0.000020  d :     0.000062
      dxz     :     0.000010
      dyz     :     0.000004
      dx2y2   :     0.000015
      dxy     :     0.000014
  6 O s       :    -0.003371  s :    -0.003371
      pz      :    -0.000537  p :    -0.007195
      px      :     0.009322
      py      :    -0.015979
      dz2     :     0.000020  d :     0.000062
      dxz     :     0.000010
      dyz     :     0.000004
      dx2y2   :     0.000015
      dxy     :     0.000014


                     *******************************
                     * LOEWDIN POPULATION ANALYSIS *
                     *******************************

-------------------------------------------
LOEWDIN ATOMIC CHARGES AND SPIN POPULATIONS
-------------------------------------------
   0 Cr:   -1.439970    3.013469
   1 O :   -0.754924    0.993145
   2 O :   -0.754924    0.993145
   3 O :   -1.513859   -0.002828
   4 O :   -1.513859   -0.002828
   5 O :   -1.511232    0.002949
   6 O :   -1.511232    0.002949

----------------------------------------------------
LOEWDIN REDUCED ORBITAL CHARGES AND SPIN POPULATIONS
----------------------------------------------------
CHARGE
  0 Crs       :     8.307376  s :     8.307376
      pz      :     4.314927  p :    12.921119
      px      :     4.298100
      py      :     4.308092
      dz2     :     1.009376  d :     4.203462
      dxz     :     0.660450
      dyz     :     0.819881
      dx2y2   :     0.958974
      dxy     :     0.754781
      f0      :     0.001051  f :     0.008014
      f+1     :     0.001231
      f-1     :     0.000538
      f+2     :     0.001417
      f-2     :     0.001915
      f+3     :     0.000881
      f-3     :     0.000980
  1 O s       :     3.866650  s :     3.866650
      pz      :     1.259185  p :     4.886404
      px      :     1.921522
      py      :     1.705697
      dz2     :     0.000384  d :     0.001870
      dxz     :     0.000295
      dyz     :     0.000608
      dx2y2   :     0.000233
      dxy     :     0.000349
  2 O s       :     3.866650  s :     3.866650
      pz      :     1.259185  p :     4.886404
      px      :     1.921522
      py      :     1.705697
      dz2     :     0.000384  d :     0.001870
      dxz     :     0.000295
      dyz     :     0.000608
      dx2y2   :     0.000233
      dxy     :     0.000349
  3 O s       :     3.835739  s :     3.835739
      pz      :     1.855070  p :     5.677438
      px      :     1.880845
      py      :     1.941523
      dz2     :     0.000135  d :     0.000682
      dxz     :     0.000336
      dyz     :     0.000083
      dx2y2   :     0.000068
      dxy     :     0.000060
  4 O s       :     3.835739  s :     3.835739
      pz      :     1.855070  p :     5.677438
      px      :     1.880845
      py      :     1.941523
      dz2     :     0.000135  d :     0.000682
      dxz     :     0.000336
      dyz     :     0.000083
      dx2y2   :     0.000068
      dxy     :     0.000060
  5 O s       :     3.835744  s :     3.835744
      pz      :     1.914805  p :     5.674806
      px      :     1.922967
      py      :     1.837034
      dz2     :     0.000067  d :     0.000682
      dxz     :     0.000061
      dyz     :     0.000245
      dx2y2   :     0.000146
      dxy     :     0.000162
  6 O s       :     3.835744  s :     3.835744
      pz      :     1.914805  p :     5.674806
      px      :     1.922967
      py      :     1.837034
      dz2     :     0.000067  d :     0.000682
      dxz     :     0.000061
      dyz     :     0.000245
      dx2y2   :     0.000146
      dxy     :     0.000162

SPIN
  0 Crs       :     0.011071  s :     0.011071
      pz      :     0.005873  p :     0.009427
      px      :     0.000005
      py      :     0.003549
      dz2     :     0.838667  d :     2.991793
      dxz     :     0.330427
      dyz     :     0.554817
      dx2y2   :     0.760455
      dxy     :     0.507428
      f0      :     0.000107  f :     0.001178
      f+1     :     0.000309
      f-1     :     0.000038
      f+2     :     0.000233
      f-2     :     0.000241
      f+3     :     0.000165
      f-3     :     0.000084
  1 O s       :     0.009859  s :     0.009859
      pz      :     0.709798  p :     0.983233
      px      :     0.020467
      py      :     0.252969
      dz2     :     0.000016  d :     0.000052
      dxz     :     0.000026
      dyz     :    -0.000068
      dx2y2   :     0.000048
      dxy     :     0.000031
  2 O s       :     0.009859  s :     0.009859
      pz      :     0.709798  p :     0.983233
      px      :     0.020467
      py      :     0.252969
      dz2     :     0.000016  d :     0.000052
      dxz     :     0.000026
      dyz     :    -0.000068
      dx2y2   :     0.000048
      dxy     :     0.000031
  3 O s       :    -0.001600  s :    -0.001600
      pz      :    -0.012023  p :    -0.001347
      px      :     0.000002
      py      :     0.010674
      dz2     :     0.000042  d :     0.000120
      dxz     :     0.000006
      dyz     :     0.000032
      dx2y2   :     0.000018
      dxy     :     0.000022
  4 O s       :    -0.001600  s :    -0.001600
      pz      :    -0.012023  p :    -0.001347
      px      :     0.000002
      py      :     0.010674
      dz2     :     0.000042  d :     0.000120
      dxz     :     0.000006
      dyz     :     0.000032
      dx2y2   :     0.000018
      dxy     :     0.000022
  5 O s       :    -0.001243  s :    -0.001243
      pz      :     0.002364  p :     0.004071
      px      :     0.011506
      py      :    -0.009799
      dz2     :     0.000031  d :     0.000121
      dxz     :     0.000015
      dyz     :     0.000017
      dx2y2   :     0.000028
      dxy     :     0.000029
  6 O s       :    -0.001243  s :    -0.001243
      pz      :     0.002364  p :     0.004071
      px      :     0.011506
      py      :    -0.009799
      dz2     :     0.000031  d :     0.000121
      dxz     :     0.000015
      dyz     :     0.000017
      dx2y2   :     0.000028
      dxy     :     0.000029


                      *****************************
                      * MAYER POPULATION ANALYSIS *
                      *****************************

  NA   - Mulliken gross atomic population
  ZA   - Total nuclear charge
  QA   - Mulliken gross atomic charge
  VA   - Mayer's total valence
  BVA  - Mayer's bonded valence
  FA   - Mayer's free valence

  ATOM       NA         ZA         QA         VA         BVA        FA
  0 Cr    24.6380    24.0000    -0.6380     5.4318     2.5238     2.9080
  1 O      8.9159     8.0000    -0.9159     1.1376     0.1565     0.9811
  2 O      8.9159     8.0000    -0.9159     1.1376     0.1565     0.9811
  3 O      9.6335     8.0000    -1.6335     0.5977     0.5956     0.0021
  4 O      9.6335     8.0000    -1.6335     0.5977     0.5956     0.0021
  5 O      9.6315     8.0000    -1.6315     0.6016     0.5996     0.0020
  6 O      9.6315     8.0000    -1.6315     0.6016     0.5996     0.0020

  Mayer bond orders larger than 0.100000
B(  0-Cr,  1-O ) :   0.1251 B(  0-Cr,  2-O ) :   0.1251 B(  0-Cr,  3-O ) :   0.5685 
B(  0-Cr,  4-O ) :   0.5685 B(  0-Cr,  5-O ) :   0.5683 B(  0-Cr,  6-O ) :   0.5683 


Environment variable NBOEXE for nbo6.exe or nbo5.exe not set! Skipping NBO-Analysis

-------
TIMINGS
-------

Total SCF time: 0 days 0 hours 0 min 9 sec 

Total time                  ....       9.506 sec
Sum of individual times     ....       9.306 sec  ( 97.9%)

Fock matrix formation       ....       8.833 sec  ( 92.9%)
Diagonalization             ....       0.226 sec  (  2.4%)
Density matrix formation    ....       0.007 sec  (  0.1%)
Population analysis         ....       0.021 sec  (  0.2%)
Initial guess               ....       0.037 sec  (  0.4%)
Orbital Transformation      ....       0.000 sec  (  0.0%)
Orbital Orthonormalization  ....       0.000 sec  (  0.0%)
DIIS solution               ....       0.125 sec  (  1.3%)

Maximum memory used throughout the entire SCF-calculation: 227.0 MB

-------------------------   --------------------
FINAL SINGLE POINT ENERGY     -1485.508271229899
-------------------------   --------------------



           ************************************************************
           *        Program running with 4 parallel MPI-processes     *
           *              working on a common directory               *
           ************************************************************
------------------------------------------------------------------------------
                         ORCA SCF GRADIENT CALCULATION
------------------------------------------------------------------------------

Gradient of the Hartree-Fock SCF energy:
Hartree-Fock type                ... UHF
Number of operators              ...    2
Number of atoms                  ...    7
Basis set dimensions             ...  115
Integral neglect threshold       ... 2.5e-11
Integral primitive cutoff        ... 2.5e-12
SHARK Integral package           ... ON

Nuc. rep. gradient       (SHARK) ... done (  0.0 sec)
HCore & Overlap gradient (SHARK) ... done (  0.0 sec)
Two-Electron gradient    (SHARK) ... done (  2.1 sec)

------------------
CARTESIAN GRADIENT
------------------

   1   Cr  :    0.000000000    0.000000000   -0.000000000
   2   O   :   -0.046172964   -0.035763122   -0.028683547
   3   O   :    0.046172964    0.035763122    0.028683547
   4   O   :   -0.045518391    0.011484388    0.058952390
   5   O   :    0.045518391   -0.011484388   -0.058952390
   6   O   :    0.023599763   -0.060184452    0.037048070
   7   O   :   -0.023599763    0.060184452   -0.037048070

Difference to translation invariance:
           :    0.0000000000    0.0000000000   -0.0000000000

Difference to rotation invariance:
           :   -0.0000028026   -0.0000001265   -0.0000004128

Norm of the cartesian gradient     ...    0.1758667975
RMS gradient                       ...    0.0383772815
MAX gradient                       ...    0.0601844520

-------
TIMINGS
-------

Total SCF gradient time            ...        2.164 sec

One electron gradient       ....       0.017 sec  (  0.8%)
Two electron gradient       ....       2.086 sec  ( 96.4%)

Maximum memory used throughout the entire SCFGRAD-calculation: 27.5 MB
------------------------------------------------------------------------------
                         ORCA GEOMETRY RELAXATION STEP
------------------------------------------------------------------------------

Reading the OPT-File                    .... done
Getting information on internals        .... done
Copying old internal coords+grads       .... done
Making the new internal coordinates     .... (new redundants).... done
Validating the new internal coordinates .... (new redundants).... done
Calculating the B-matrix                .... done
Calculating the G,G- and P matrices     .... done
Transforming gradient to internals      .... done
Projecting the internal gradient        .... done
Number of atoms                         ....   7
Number of internal coordinates          ....  18
Current Energy                          .... -1485.508271230 Eh
Current gradient norm                   ....     0.175866797 Eh/bohr
Maximum allowed component of the step   ....  0.300
Current trust radius                    ....  0.300
Evaluating the initial hessian          ....  (Almloef) done
Projecting the Hessian                  .... done
Forming the augmented Hessian           .... done
Diagonalizing the augmented Hessian     .... done
Last element of RFO vector              ....  0.919399028
Lowest eigenvalues of augmented Hessian:
 -0.075351459  0.336092839  0.336093129  0.336093559  0.336093730
Length of the computed step             ....  0.427807836
Warning: the length of the step is outside the trust region - taking restricted step instead
The input lambda is                     ....    -0.075351
   iter:   1  x=   -0.179965  g=    0.889175 f(x)=     0.093020
   iter:   2  x=   -0.238454  g=    0.450763 f(x)=     0.026365
   iter:   3  x=   -0.250356  g=    0.326678 f(x)=     0.003888
   iter:   4  x=   -0.250738  g=    0.307197 f(x)=     0.000118
   iter:   5  x=   -0.250739  g=    0.306597 f(x)=     0.000000
   iter:   6  x=   -0.250739  g=    0.306597 f(x)=     0.000000
   iter:   7  x=   -0.250739  g=    0.306597 f(x)=     0.000000
The output lambda is                    ....    -0.250739 (7 iterations)
The final length of the internal step   ....  0.300000000
Converting the step to cartesian space:
 Initial RMS(Int)=    0.0707106781
Transforming coordinates:
 Iter   0:  RMS(Cart)=    0.0657836273 RMS(Int)=    0.0707179237
 Iter   1:  RMS(Cart)=    0.0002254512 RMS(Int)=    0.0001165307
 Iter   2:  RMS(Cart)=    0.0000068289 RMS(Int)=    0.0000036079
 Iter   3:  RMS(Cart)=    0.0000002035 RMS(Int)=    0.0000001077
 Iter   4:  RMS(Cart)=    0.0000000061 RMS(Int)=    0.0000000032
done
Storing new coordinates                 .... done

                                .--------------------.
          ----------------------|Geometry convergence|-------------------------
          Item                value                   Tolerance       Converged
          ---------------------------------------------------------------------
          RMS gradient        0.0415183512            0.0001000000      NO
          MAX gradient        0.0753085926            0.0003000000      NO
          RMS step            0.0707106781            0.0020000000      NO
          MAX step            0.1283307361            0.0040000000      NO
          ........................................................
          Max(Bonds)      0.0679      Max(Angles)    0.48
          Max(Dihed)        0.00      Max(Improp)    0.00
          ---------------------------------------------------------------------

The optimization has not yet converged - more geometry cycles are needed


    ---------------------------------------------------------------------------
                         Redundant Internal Coordinates
                            (Angstroem and degrees)

        Definition                    Value    dE/dq     Step     New-Value
    ----------------------------------------------------------------------------
     1. B(O   1,Cr  0)                2.1588 -0.065067  0.0587    2.2175   
     2. B(O   2,Cr  0)                2.1588 -0.065067  0.0587    2.2175   
     3. B(O   3,Cr  0)                2.1588 -0.075309  0.0679    2.2267   
     4. B(O   4,Cr  0)                2.1588 -0.075309  0.0679    2.2267   
     5. B(O   5,Cr  0)                2.1588 -0.074457  0.0671    2.2259   
     6. B(O   6,Cr  0)                2.1588 -0.074457  0.0671    2.2259   
     7. A(O   2,Cr  0,O   3)           90.00 -0.000001    0.00     90.00   
     8. A(O   1,Cr  0,O   4)           90.00 -0.000001    0.00     90.00   
     9. A(O   2,Cr  0,O   4)           90.00  0.000001   -0.00     90.00   
    10. A(O   1,Cr  0,O   5)           90.00  0.000001   -0.00     90.00   
    11. A(O   2,Cr  0,O   5)           90.00 -0.000001    0.00     90.00   
    12. A(O   3,Cr  0,O   5)           90.00  0.005702   -0.48     89.52   
    13. A(O   4,Cr  0,O   5)           90.00 -0.005702    0.48     90.48   
    14. A(O   1,Cr  0,O   6)           90.00 -0.000001    0.00     90.00   
    15. A(O   2,Cr  0,O   6)           90.00  0.000001   -0.00     90.00   
    16. A(O   3,Cr  0,O   6)           90.00 -0.005702    0.48     90.48   
    17. A(O   4,Cr  0,O   6)           90.00  0.005702   -0.48     89.52   
    18. A(O   1,Cr  0,O   3)           90.00  0.000001   -0.00     90.00   
    ----------------------------------------------------------------------------

         *************************************************************
         *                GEOMETRY OPTIMIZATION CYCLE   2            *
         *************************************************************
---------------------------------
CARTESIAN COORDINATES (ANGSTROEM)
---------------------------------
  Cr    -0.000000   -0.000000    0.000000
  O      1.573557    1.218790    0.977534
  O     -1.573557   -1.218790   -0.977534
  O      1.370809   -0.399389   -1.708661
  O     -1.370809    0.399389    1.708661
  O     -0.751368    1.812792   -1.050697
  O      0.751368   -1.812792    1.050697

----------------------------
CARTESIAN COORDINATES (A.U.)
----------------------------
  NO LB      ZA    FRAG     MASS         X           Y           Z
   0 Cr   24.0000    0    52.000   -0.000000   -0.000000    0.000000
   1 O     8.0000    0    15.999    2.973591    2.303179    1.847272
   2 O     8.0000    0    15.999   -2.973591   -2.303179   -1.847272
   3 O     8.0000    0    15.999    2.590453   -0.754735   -3.228901
   4 O     8.0000    0    15.999   -2.590453    0.754735    3.228901
   5 O     8.0000    0    15.999   -1.419880    3.425681   -1.985529
   6 O     8.0000    0    15.999    1.419880   -3.425681    1.985529

--------------------------------
INTERNAL COORDINATES (ANGSTROEM)
--------------------------------
 Cr     0   0   0     0.000000000000     0.00000000     0.00000000
 O      1   0   0     2.217454294392     0.00000000     0.00000000
 O      1   2   0     2.217454294393   180.00000000     0.00000000
 O      1   2   3     2.226690101548    90.00000614     0.00000000
 O      1   2   4     2.226690101548    89.99999386   180.00000000
 O      1   2   5     2.225922951124    89.99998957    90.47735644
 O      1   2   6     2.225922951124    90.00001043   180.00000000

---------------------------
INTERNAL COORDINATES (A.U.)
---------------------------
 Cr     0   0   0     0.000000000000     0.00000000     0.00000000
 O      1   0   0     4.190381330889     0.00000000     0.00000000
 O      1   2   0     4.190381330890   180.00000000     0.00000000
 O      1   2   3     4.207834477039    90.00000614     0.00000000
 O      1   2   4     4.207834477039    89.99999386   180.00000000
 O      1   2   5     4.206384772833    89.99998957    90.47735644
 O      1   2   6     4.206384772834    90.00001043   180.00000000



           ************************************************************
           *        Program running with 4 parallel MPI-processes     *
           *              working on a common directory               *
           ************************************************************
------------------------------------------------------------------------------
                   ___                                                        
                  /   \      - P O W E R E D   B Y -                         
                 /     \                                                     
                 |  |  |   _    _      __       _____    __    __             
                 |  |  |  | |  | |    /  \     |  _  \  |  |  /  |          
                  \  \/   | |  | |   /    \    | | | |  |  | /  /          
                 / \  \   | |__| |  /  /\  \   | |_| |  |  |/  /          
                |  |  |   |  __  | /  /__\  \  |    /   |      \           
                |  |  |   | |  | | |   __   |  |    \   |  |\   \          
                \     /   | |  | | |  |  |  |  | |\  \  |  | \   \       
                 \___/    |_|  |_| |__|  |__|  |_| \__\ |__|  \__/        
                                                                              
                      - O R C A' S   B I G   F R I E N D -                    
                                      &                                       
                       - I N T E G R A L  F E E D E R -                       
                                                                              
 v1 FN, 2020, v2 2021                                                         
------------------------------------------------------------------------------


Reading SHARK input file test.SHARKINP.tmp ... ok
----------------------
SHARK INTEGRAL PACKAGE
----------------------

Number of atoms                             ...      7
Number of basis functions                   ...    115
Number of shells                            ...     47
Maximum angular momentum                    ...      3
Integral batch strategy                     ... SHARK/LIBINT Hybrid
RI-J (if used) integral strategy            ... SPLIT-RIJ (Revised 2003 algorithm where possible)
Printlevel                                  ...      1
Contraction scheme used                     ... SEGMENTED contraction
Coulomb Range Separation                    ... NOT USED
Exchange Range Separation                   ... NOT USED
Finite Nucleus Model                        ... NOT USED
Auxiliary Coulomb fitting basis             ... NOT available
Auxiliary J/K fitting basis                 ... NOT available
Auxiliary Correlation fitting basis         ... NOT available
Auxiliary 'external' fitting basis          ... NOT available
Integral threshold                          ...     2.500000e-11
Primitive cut-off                           ...     2.500000e-12
Primitive pair pre-selection threshold      ...     2.500000e-12

Calculating pre-screening integrals         ... done (  0.0 sec) Dimension = 47
Organizing shell pair data                  ... done (  0.0 sec)
Shell pair information
Total number of shell pairs                 ...      1128
Shell pairs after pre-screening             ...       998
Total number of primitive shell pairs       ...      5269
Primitive shell pairs kept                  ...      3263
          la=0 lb=0:    236 shell pairs
          la=1 lb=0:    303 shell pairs
          la=1 lb=1:    117 shell pairs
          la=2 lb=0:    148 shell pairs
          la=2 lb=1:    114 shell pairs
          la=2 lb=2:     33 shell pairs
          la=3 lb=0:     23 shell pairs
          la=3 lb=1:     15 shell pairs
          la=3 lb=2:      8 shell pairs
          la=3 lb=3:      1 shell pairs

Calculating one electron integrals          ... done (  0.0 sec)
Calculating Nuclear repulsion               ... done (  0.0 sec) ENN=    426.288850706631 Eh

SHARK setup successfully completed in   0.2 seconds

Maximum memory used throughout the entire GTOINT-calculation: 13.5 MB


           ************************************************************
           *        Program running with 4 parallel MPI-processes     *
           *              working on a common directory               *
           ************************************************************

Diagonalization of the overlap matrix:
Smallest eigenvalue                        ... 3.517e-02
Time for diagonalization                   ...    0.002 sec
Threshold for overlap eigenvalues          ... 1.000e-08
Number of eigenvalues below threshold      ... 0
Time for construction of square roots      ...    0.001 sec
Total time needed                          ...    0.003 sec

--------------
SCF ITERATIONS
--------------
ITER       Energy         Delta-E        Max-DP      RMS-DP      [F,P]     Damp
               ***  Starting incremental Fock matrix formation  ***
  0  -1485.5545447474   0.000000000000 0.03416097  0.00051482  0.0138922 0.7000
  1  -1485.5552698651  -0.000725117716 0.02886672  0.00043662  0.0097346 0.7000
                               ***Turning on DIIS***
  2  -1485.5558220564  -0.000552191319 0.07269535  0.00109972  0.0068180 0.0000
  3  -1485.5520345817   0.003787474765 0.00820266  0.00013114  0.0010550 0.0000
  4  -1485.5507743875   0.001260194168 0.00239336  0.00005801  0.0008355 0.0000
  5  -1485.5571994825  -0.006425095001 0.00174526  0.00003300  0.0004135 0.0000
  6  -1485.5544366090   0.002762873479 0.00111359  0.00001955  0.0002372 0.0000
  7  -1485.5559787370  -0.001542127956 0.00081131  0.00001851  0.0001534 0.0000
  8  -1485.5558733229   0.000105414083 0.00066801  0.00001213  0.0000628 0.0000
  9  -1485.5569300671  -0.001056744256 0.00017399  0.00000337  0.0000501 0.0000
 10  -1485.5573943356  -0.000464268431 0.00010240  0.00000147  0.0000438 0.0000
 11  -1485.5574064536  -0.000012118046 0.00008726  0.00000095  0.0000387 0.0000
 12  -1485.5574372411  -0.000030787444 0.00009453  0.00000101  0.0000343 0.0000
 13  -1485.5574711781  -0.000033937027 0.00014807  0.00000160  0.0000293 0.0000
 14  -1485.5574212729   0.000049905167 0.00019330  0.00000211  0.0000214 0.0000
 15  -1485.5574389404  -0.000017667457 0.00014085  0.00000156  0.0000111 0.0000
 16  -1485.5574179882   0.000020952173 0.00004767  0.00000060  0.0000082 0.0000
 17  -1485.5574171809   0.000000807309 0.00001385  0.00000030  0.0000082 0.0000
 18  -1485.5574184394  -0.000001258530 0.00000847  0.00000024  0.0000082 0.0000
 19  -1485.5574186142  -0.000000174790 0.00000816  0.00000022  0.0000082 0.0000
               *** Restarting incremental Fock matrix formation ***
                                   *** Resetting DIIS ***
 20  -1485.5574216361  -0.000003021906 0.00000507  0.00000013  0.0000082 0.0000
 21  -1485.5574216024   0.000000033747 0.00000513  0.00000014  0.0000082 0.0000
 22  -1485.5574214957   0.000000106711 0.00000545  0.00000014  0.0000082 0.0000

 WARNING: the maximum gradient error descreased on average only by a factor   1.1
          during the last 20 iterations

                      *** Initiating the TRAH-SCF procedure ***

 --------------------------------------------------------------------------------------------
   Iter.        energy            ||Error||_2        Shift      TRadius  Mac/Mic        Rej.
 --------------------------------------------------------------------------------------------
    0      -1485.557421640967     2.035359e-05                     0.400 (TRAH MAcro)   No
    0     dE    -1.248976e-09     8.737412e-05    -1.2493e-09      0.000 (TRAH MIcro)
    0     dE    -1.472489e-07     1.036519e-03    -1.4724e-07      0.008 (TRAH MIcro)
    0     dE    -7.222194e-07     9.812428e-04    -7.2118e-07      0.038 (TRAH MIcro)
    0     dE    -1.511794e-06     1.064934e-03    -1.5023e-06      0.079 (TRAH MIcro)
    0     dE    -1.760771e-06     3.232384e-04    -1.7459e-06      0.092 (TRAH MIcro)
    0     dE    -1.848322e-06     2.342574e-04    -1.8312e-06      0.097 (TRAH MIcro)
    0     dE    -1.881221e-06     1.084277e-04    -1.8632e-06      0.098 (TRAH MIcro)
    0     dE    -1.889983e-06     3.178238e-05    -1.8717e-06      0.099 (TRAH MIcro)
    0     dE    -1.893392e-06     6.572015e-05    -1.8750e-06      0.099 (TRAH MIcro)
    0     dE    -1.899000e-06     4.256118e-05    -1.8804e-06      0.099 (TRAH MIcro)
    0     dE    -1.900892e-06     3.026266e-05    -1.8823e-06      0.099 (TRAH MIcro)
    0     dE    -1.901446e-06     1.070163e-05    -1.8828e-06      0.099 (TRAH MIcro)
    0     dE    -1.901576e-06     9.906379e-06    -1.8829e-06      0.099 (TRAH MIcro)
    0     dE    -1.901789e-06     1.275392e-05    -1.8831e-06      0.099 (TRAH MIcro)
    1      -1485.557423100400     1.138350e-03                     0.480 (TRAH MAcro)   No
    1     dE    -3.182089e-07     1.139709e-03    -3.1821e-07      0.000 (TRAH MIcro)
    1     dE    -4.263305e-07     1.186170e-04    -4.2633e-07      0.000 (TRAH MIcro)
    1     dE    -4.306582e-07     9.463906e-06    -4.3066e-07      0.000 (TRAH MIcro)
    2      -1485.557423531061     9.462069e-06                           (NR   MAcro)
    2     dE    -5.455151e-11     5.311417e-06                           (NR   MIcro)
    2     dE    -8.503107e-11     4.023802e-06                           (NR   MIcro)
    2     dE    -1.075391e-10     4.366037e-06                           (NR   MIcro)
    2     dE    -1.281035e-10     3.826308e-06                           (NR   MIcro)
    2     dE    -1.446543e-10     2.997069e-06                           (NR   MIcro)
    2     dE    -1.507041e-10     1.606976e-06                           (NR   MIcro)
    2     dE    -1.536990e-10     1.288469e-06                           (NR   MIcro)
    2     dE    -1.545316e-10     6.727743e-07                           (NR   MIcro)
    3      -1485.557423531213     6.727610e-07                           (NR   MAcro)

               *****************************************************
               *                     SUCCESS                       *
               *           SCF CONVERGED AFTER  52 CYCLES          *
               *****************************************************

Total Energy       :        -1485.55742353 Eh          -40424.07261 eV
  Last Energy change         ...   -1.5280e-10  Tolerance :   1.0000e-08
  Last Orbital Gradient      ...    6.7276e-07  Tolerance :   1.0000e-05
  Last Orbital Rotation      ...    4.8455e-05

             **** THE GBW FILE WAS UPDATED (test.gbw) ****
             **** DENSITY test.scfp WAS UPDATED ****
             **** ENERGY FILE WAS UPDATED (test.en.tmp) ****
----------------------
UHF SPIN CONTAMINATION
----------------------

Expectation value of <S**2>     :     8.783661
Ideal value S*(S+1) for S=2.5   :     8.750000
Deviation                       :     0.033661

             **** THE GBW FILE WAS UPDATED (test.gbw) ****
             **** DENSITY test.scfp WAS UPDATED ****
Total SCF time: 0 days 0 hours 0 min 16 sec 

Maximum memory used throughout the entire SCF-calculation: 226.9 MB

-------------------------   --------------------
FINAL SINGLE POINT ENERGY     -1485.557423531213
-------------------------   --------------------



           ************************************************************
           *        Program running with 4 parallel MPI-processes     *
           *              working on a common directory               *
           ************************************************************
------------------------------------------------------------------------------
                         ORCA SCF GRADIENT CALCULATION
------------------------------------------------------------------------------

Gradient of the Hartree-Fock SCF energy:
Hartree-Fock type                ... UHF
Number of operators              ...    2
Number of atoms                  ...    7
Basis set dimensions             ...  115
Integral neglect threshold       ... 2.5e-11
Integral primitive cutoff        ... 2.5e-12
SHARK Integral package           ... ON

Nuc. rep. gradient       (SHARK) ... done (  0.0 sec)
HCore & Overlap gradient (SHARK) ... done (  0.0 sec)
Two-Electron gradient    (SHARK) ... done (  2.0 sec)

------------------
CARTESIAN GRADIENT
------------------

   1   Cr  :   -0.000000002    0.000000002    0.000000001
   2   O   :   -0.040683265   -0.031510983   -0.025273497
   3   O   :    0.040683265    0.031510983    0.025273497
   4   O   :   -0.039368123    0.010669020    0.050069589
   5   O   :    0.039368129   -0.010669016   -0.050069587
   6   O   :    0.021041586   -0.052227421    0.031246186
   7   O   :   -0.021041590    0.052227416   -0.031246189

Difference to translation invariance:
           :    0.0000000000   -0.0000000000   -0.0000000000

Difference to rotation invariance:
           :    0.0000006302    0.0000000005    0.0000000751

Norm of the cartesian gradient     ...    0.1523432744
RMS gradient                       ...    0.0332440279
MAX gradient                       ...    0.0522274213

-------
TIMINGS
-------

Total SCF gradient time            ...        2.094 sec

One electron gradient       ....       0.017 sec  (  0.8%)
Two electron gradient       ....       2.018 sec  ( 96.3%)

Maximum memory used throughout the entire SCFGRAD-calculation: 27.5 MB
------------------------------------------------------------------------------
                         ORCA GEOMETRY RELAXATION STEP
------------------------------------------------------------------------------

Reading the OPT-File                    .... done
Getting information on internals        .... done
Copying old internal coords+grads       .... done
Making the new internal coordinates     .... (new redundants).... done
Validating the new internal coordinates .... (new redundants).... done
Calculating the B-matrix                .... done
Calculating the G,G- and P matrices     .... done
Transforming gradient to internals      .... done
Projecting the internal gradient        .... done
Number of atoms                         ....   7
Number of internal coordinates          ....  18
Current Energy                          .... -1485.557423531 Eh
Current gradient norm                   ....     0.152343274 Eh/bohr
Maximum allowed component of the step   ....  0.300
Current trust radius                    ....  0.300
Updating the Hessian (BFGS)             .... done
Forming the augmented Hessian           .... done
Diagonalizing the augmented Hessian     .... done
Last element of RFO vector              ....  0.790242025
Lowest eigenvalues of augmented Hessian:
 -0.118160806  0.196417733  0.336092839  0.336093129  0.336093559
Length of the computed step             ....  0.775452130
Warning: the length of the step is outside the trust region - taking restricted step instead
The input lambda is                     ....    -0.118161
   iter:   1  x=   -0.201697  g=    6.121018 f(x)=     0.511326
   iter:   2  x=   -0.299148  g=    2.114547 f(x)=     0.206064
   iter:   3  x=   -0.383634  g=    0.863240 f(x)=     0.072932
   iter:   4  x=   -0.423527  g=    0.470955 f(x)=     0.018788
   iter:   5  x=   -0.429464  g=    0.367338 f(x)=     0.002181
   iter:   6  x=   -0.429571  g=    0.354604 f(x)=     0.000038
   iter:   7  x=   -0.429571  g=    0.354379 f(x)=     0.000000
   iter:   8  x=   -0.429571  g=    0.354379 f(x)=     0.000000
The output lambda is                    ....    -0.429571 (8 iterations)
The final length of the internal step   ....  0.300000000
Converting the step to cartesian space:
 Initial RMS(Int)=    0.0707106781
Transforming coordinates:
 Iter   0:  RMS(Cart)=    0.0655121557 RMS(Int)=    0.0707117372
[...]
   0 Cr   24.0000    0    52.000    0.236863   -0.075722   -0.286873
   1 O     8.0000    0    15.999    6.301499    5.365270    4.757164
   2 O     8.0000    0    15.999   -7.206545   -5.097311   -3.634384
   3 O     8.0000    0    15.999    7.277438   -2.167642   -9.012024
   4 O     8.0000    0    15.999   -5.628429    1.656814    6.994480
   5 O     8.0000    0    15.999   -3.775004    8.028113   -3.932751
   6 O     8.0000    0    15.999    2.794179   -7.709523    5.114387

--------------------------------
INTERNAL COORDINATES (ANGSTROEM)
--------------------------------
 Cr     0   0   0     0.000000000000     0.00000000     0.00000000
 O      1   0   0     5.070901474142     0.00000000     0.00000000
 O      1   2   0     5.070901408011   166.66027643     0.00000000
 O      1   2   3     6.035267349925    96.66973632   179.64666324
 O      1   2   4     5.031956129338    83.33033321   179.91351877
 O      1   2   5     5.159400045373    89.15831266    83.22261511
 O      1   2   5     5.130246751416    89.24885299   276.87708190

---------------------------
INTERNAL COORDINATES (A.U.)
---------------------------
 Cr     0   0   0     0.000000000000     0.00000000     0.00000000
 O      1   0   0     9.582615038227     0.00000000     0.00000000
 O      1   2   0     9.582614913256   166.66027643     0.00000000
 O      1   2   3    11.405002436355    96.66973632   179.64666324
 O      1   2   4     9.509019002356    83.33033321   179.91351877
 O      1   2   5     9.749853101095    89.15831266    83.22261511
 O      1   2   5     9.694761359616    89.24885299   276.87708190



           ************************************************************
           *        Program running with 4 parallel MPI-processes     *
           *              working on a common directory               *
           ************************************************************
------------------------------------------------------------------------------
                   ___                                                        
                  /   \      - P O W E R E D   B Y -                         
                 /     \                                                     
                 |  |  |   _    _      __       _____    __    __             
                 |  |  |  | |  | |    /  \     |  _  \  |  |  /  |          
                  \  \/   | |  | |   /    \    | | | |  |  | /  /          
                 / \  \   | |__| |  /  /\  \   | |_| |  |  |/  /          
                |  |  |   |  __  | /  /__\  \  |    /   |      \           
                |  |  |   | |  | | |   __   |  |    \   |  |\   \          
                \     /   | |  | | |  |  |  |  | |\  \  |  | \   \       
                 \___/    |_|  |_| |__|  |__|  |_| \__\ |__|  \__/        
                                                                              
                      - O R C A' S   B I G   F R I E N D -                    
                                      &                                       
                       - I N T E G R A L  F E E D E R -                       
                                                                              
 v1 FN, 2020, v2 2021                                                         
------------------------------------------------------------------------------


Reading SHARK input file test.SHARKINP.tmp ... ok
----------------------
SHARK INTEGRAL PACKAGE
----------------------

Number of atoms                             ...      7
Number of basis functions                   ...    115
Number of shells                            ...     47
Maximum angular momentum                    ...      3
Integral batch strategy                     ... SHARK/LIBINT Hybrid
RI-J (if used) integral strategy            ... SPLIT-RIJ (Revised 2003 algorithm where possible)
Printlevel                                  ...      1
Contraction scheme used                     ... SEGMENTED contraction
Coulomb Range Separation                    ... NOT USED
Exchange Range Separation                   ... NOT USED
Finite Nucleus Model                        ... NOT USED
Auxiliary Coulomb fitting basis             ... NOT available
Auxiliary J/K fitting basis                 ... NOT available
Auxiliary Correlation fitting basis         ... NOT available
Auxiliary 'external' fitting basis          ... NOT available
Integral threshold                          ...     2.500000e-11
Primitive cut-off                           ...     2.500000e-12
Primitive pair pre-selection threshold      ...     2.500000e-12

Calculating pre-screening integrals         ... done (  0.0 sec) Dimension = 47
Organizing shell pair data                  ... done (  0.0 sec)
Shell pair information
Total number of shell pairs                 ...      1128
Shell pairs after pre-screening             ...       456
Total number of primitive shell pairs       ...      5269
Primitive shell pairs kept                  ...      1602
          la=0 lb=0:    111 shell pairs
          la=1 lb=0:    141 shell pairs
          la=1 lb=1:     57 shell pairs
          la=2 lb=0:     64 shell pairs
          la=2 lb=1:     45 shell pairs
          la=2 lb=2:     15 shell pairs
          la=3 lb=0:     11 shell pairs
          la=3 lb=1:      9 shell pairs
          la=3 lb=2:      2 shell pairs
          la=3 lb=3:      1 shell pairs

Calculating one electron integrals          ... done (  0.0 sec)
Calculating Nuclear repulsion               ... done (  0.0 sec) ENN=    181.551626622866 Eh

SHARK setup successfully completed in   0.1 seconds

Maximum memory used throughout the entire GTOINT-calculation: 12.9 MB


           ************************************************************
           *        Program running with 4 parallel MPI-processes     *
           *              working on a common directory               *
           ************************************************************

Diagonalization of the overlap matrix:
Smallest eigenvalue                        ... 1.096e-01
Time for diagonalization                   ...    0.002 sec
Threshold for overlap eigenvalues          ... 1.000e-08
Number of eigenvalues below threshold      ... 0
Time for construction of square roots      ...    0.001 sec
Total time needed                          ...    0.003 sec

--------------
SCF ITERATIONS
--------------
ITER       Energy         Delta-E        Max-DP      RMS-DP      [F,P]     Damp
               ***  Starting incremental Fock matrix formation  ***
  0  -1487.6123395478   0.000000000000 0.00077155  0.00002332  0.0004857 0.7000
  1  -1487.6123442497  -0.000004701904 0.00077991  0.00002093  0.0003920 0.7000
                               ***Turning on DIIS***
  2  -1487.6123479286  -0.000003678882 0.00247327  0.00005587  0.0003094 0.0000
  3  -1487.6122045563   0.000143372216 0.00083284  0.00001173  0.0001145 0.0000
  4  -1487.6122057370  -0.000001180636 0.00053681  0.00000832  0.0000776 0.0000
  5  -1487.6121994518   0.000006285183 0.00029353  0.00000339  0.0000223 0.0000
  6  -1487.6123409256  -0.000141473784 0.00017477  0.00000202  0.0000123 0.0000
  7  -1487.6124073452  -0.000066419653 0.00016017  0.00000181  0.0000105 0.0000
  8  -1487.6123768246   0.000030520642 0.00026066  0.00000290  0.0000087 0.0000
  9  -1487.6123932355  -0.000016410939 0.00031347  0.00000347  0.0000058 0.0000
 10  -1487.6123638309   0.000029404624 0.00012781  0.00000142  0.0000020 0.0000
 11  -1487.6123580869   0.000005744022 0.00002554  0.00000029  0.0000019 0.0000
 12  -1487.6123576082   0.000000478689 0.00000670  0.00000010  0.0000019 0.0000
 13  -1487.6123567343   0.000000873870 0.00000851  0.00000013  0.0000018 0.0000
 14  -1487.6123574885  -0.000000754224 0.00000617  0.00000013  0.0000018 0.0000
 15  -1487.6123576725  -0.000000183910 0.00000810  0.00000020  0.0000018 0.0000
 16  -1487.6123589213  -0.000001248882 0.00001215  0.00000037  0.0000017 0.0000
 17  -1487.6123592059  -0.000000284542 0.00002598  0.00000076  0.0000015 0.0000
 18  -1487.6123611001  -0.000001894219 0.00004124  0.00000118  0.0000013 0.0000
                            ***DIIS convergence achieved***

               *****************************************************
               *                     SUCCESS                       *
               *           SCF CONVERGED AFTER  19 CYCLES          *
               *****************************************************

Total Energy       :        -1487.61235867 Eh          -40479.99024 eV
  Last Energy change         ...    2.4305e-06  Tolerance :   1.0000e-08
  Last MAX-Density change    ...    3.7612e-05  Tolerance :   1.0000e-07
             **** THE GBW FILE WAS UPDATED (test.gbw) ****
             **** DENSITY test.scfp WAS UPDATED ****
             **** ENERGY FILE WAS UPDATED (test.en.tmp) ****
----------------------
UHF SPIN CONTAMINATION
----------------------

Expectation value of <S**2>     :    11.746937
Ideal value S*(S+1) for S=2.5   :     8.750000
Deviation                       :     2.996937

             **** THE GBW FILE WAS UPDATED (test.gbw) ****
             **** DENSITY test.scfp WAS UPDATED ****
Total SCF time: 0 days 0 hours 0 min 1 sec 

Maximum memory used throughout the entire SCF-calculation: 226.1 MB

-------------------------   --------------------
FINAL SINGLE POINT ENERGY     -1487.612358669594
-------------------------   --------------------



           ************************************************************
           *        Program running with 4 parallel MPI-processes     *
           *              working on a common directory               *
           ************************************************************
------------------------------------------------------------------------------
                         ORCA SCF GRADIENT CALCULATION
------------------------------------------------------------------------------

Gradient of the Hartree-Fock SCF energy:
Hartree-Fock type                ... UHF
Number of operators              ...    2
Number of atoms                  ...    7
Basis set dimensions             ...  115
Integral neglect threshold       ... 2.5e-11
Integral primitive cutoff        ... 2.5e-12
SHARK Integral package           ... ON

Nuc. rep. gradient       (SHARK) ... done (  0.0 sec)
HCore & Overlap gradient (SHARK) ... done (  0.0 sec)
Two-Electron gradient    (SHARK) ... done (  0.4 sec)

------------------
CARTESIAN GRADIENT
------------------

   1   Cr  :    0.000176930   -0.000175244   -0.000066313
   2   O   :   -0.025137964   -0.022535437   -0.020878794
   3   O   :    0.030821315    0.020807515    0.013884563
   4   O   :   -0.036726455    0.010909074    0.045517884
   5   O   :    0.025136253   -0.007433330   -0.031194458
   6   O   :    0.016213922   -0.032793011    0.014786445
   7   O   :   -0.010484001    0.031220434   -0.022049327

Difference to translation invariance:
           :    0.0000000000   -0.0000000000    0.0000000000

Difference to rotation invariance:
           :   -0.0000001266   -0.0000000981   -0.0000000786

Norm of the cartesian gradient     ...    0.1071403434
RMS gradient                       ...    0.0233799397
MAX gradient                       ...    0.0455178840

-------
TIMINGS
-------

Total SCF gradient time            ...        0.436 sec

One electron gradient       ....       0.010 sec  (  2.2%)
Two electron gradient       ....       0.374 sec  ( 85.7%)

Maximum memory used throughout the entire SCFGRAD-calculation: 26.6 MB
------------------------------------------------------------------------------
                         ORCA GEOMETRY RELAXATION STEP
------------------------------------------------------------------------------

Reading the OPT-File                    .... done
Getting information on internals        .... done
Copying old internal coords+grads       .... done
Making the new internal coordinates     .... (new redundants).... done
Validating the new internal coordinates .... (new redundants).... done
Calculating the B-matrix                .... done
Calculating the G,G- and P matrices     .... done
Transforming gradient to internals      .... done
Projecting the internal gradient        .... done
Number of atoms                         ....   7
Number of internal coordinates          ....  18
Current Energy                          .... -1487.612358670 Eh
Current gradient norm                   ....     0.107140343 Eh/bohr
Maximum allowed component of the step   ....  0.300
Current trust radius                    ....  0.300
Resetting Hessian after 50 BFGS Update Steps....
Build internal Hessian                  .... (Almloef) done
Updating Hessian with the last 5 steps  .... done
Forming the augmented Hessian           .... done
Diagonalizing the augmented Hessian     .... done
Last element of RFO vector              ....  0.720041043
Lowest eigenvalues of augmented Hessian:
 -0.103252763  0.000013024  0.000014378  0.000017928  0.000019946
Length of the computed step             ....  0.963738784
Warning: the length of the step is outside the trust region - taking restricted step instead
The input lambda is                     ....    -0.103253
   iter:   1  x=   -0.153448  g=   16.710693 f(x)=     0.838792
   iter:   2  x=   -0.217657  g=    5.463717 f(x)=     0.350822
   iter:   3  x=   -0.285447  g=    2.000038 f(x)=     0.135581
   iter:   4  x=   -0.333150  g=    0.909263 f(x)=     0.043375
   iter:   5  x=   -0.348143  g=    0.578619 f(x)=     0.008676
   iter:   6  x=   -0.349205  g=    0.508558 f(x)=     0.000540
   iter:   7  x=   -0.349210  g=    0.504033 f(x)=     0.000002
   iter:   8  x=   -0.349210  g=    0.504013 f(x)=     0.000000
   iter:   9  x=   -0.349210  g=    0.504013 f(x)=     0.000000
The output lambda is                    ....    -0.349210 (9 iterations)
The final length of the internal step   ....  0.300000000
Converting the step to cartesian space:
 Initial RMS(Int)=    0.0707106781
Transforming coordinates:
 Iter   0:  RMS(Cart)=    0.0654791814 RMS(Int)=    0.0707109961
 Iter   1:  RMS(Cart)=    0.0000150112 RMS(Int)=    0.0000034178
 Iter   2:  RMS(Cart)=    0.0000001713 RMS(Int)=    0.0000000402
 Iter   3:  RMS(Cart)=    0.0000000020 RMS(Int)=    0.0000000005
done
Storing new coordinates                 .... done

                                .--------------------.
          ----------------------|Geometry convergence|-------------------------
          Item                value                   Tolerance       Converged
          ---------------------------------------------------------------------
          Energy change      -0.0324981437            0.0000050000      NO
          RMS gradient        0.0252533785            0.0001000000      NO
          MAX gradient        0.0594955303            0.0003000000      NO
          RMS step            0.0707106781            0.0020000000      NO
          MAX step            0.1660395514            0.0040000000      NO
          ........................................................
          Max(Bonds)      0.0879      Max(Angles)    0.04
          Max(Dihed)        0.00      Max(Improp)    0.00
          ---------------------------------------------------------------------

The optimization has not yet converged - more geometry cycles are needed


    ---------------------------------------------------------------------------
                         Redundant Internal Coordinates
                            (Angstroem and degrees)

        Definition                    Value    dE/dq     Step     New-Value
    ----------------------------------------------------------------------------
     1. B(O   1,Cr  0)                5.0709 -0.039695  0.0590    5.1299   
     2. B(O   2,Cr  0)                5.0709 -0.039695  0.0590    5.1299   
     3. B(O   3,Cr  0)                6.0353 -0.059496  0.0879    6.1231   
     4. B(O   4,Cr  0)                5.0320 -0.040745  0.0605    5.0924   
     5. B(O   5,Cr  0)                5.1594 -0.039458  0.0585    5.2179   
     6. B(O   6,Cr  0)                5.1302 -0.039633  0.0588    5.1890   
     7. A(O   2,Cr  0,O   3)           96.67  0.000103   -0.02     96.65   
     8. A(O   1,Cr  0,O   4)           83.33 -0.000103    0.02     83.35   
     9. A(O   2,Cr  0,O   4)           83.33 -0.000103    0.02     83.35   
    10. A(O   1,Cr  0,O   5)           89.16 -0.000039    0.01     89.16   
    11. A(O   2,Cr  0,O   5)           89.16 -0.000039    0.01     89.16   
    12. A(O   3,Cr  0,O   5)           96.91  0.000225   -0.03     96.88   
    13. A(O   4,Cr  0,O   5)           83.17 -0.000143    0.02     83.19   
    14. A(O   1,Cr  0,O   6)           89.25 -0.000032    0.00     89.25   
    15. A(O   2,Cr  0,O   6)           89.25 -0.000032    0.00     89.25   
    16. A(O   3,Cr  0,O   6)           96.83  0.000174   -0.03     96.80   
    17. A(O   4,Cr  0,O   6)           83.08 -0.000255    0.04     83.12   
    18. A(O   1,Cr  0,O   3)           96.67  0.000103   -0.02     96.65   
    ----------------------------------------------------------------------------




    ----------------------------------------------------------------------------
                                  WARNING !!!
       The optimization did not converge but reached the maximum number of
       optimization cycles.
       Please check your results very carefully.
    ----------------------------------------------------------------------------



                            ***************************************
                            *     ORCA property calculations      *
                            ***************************************

                                    ---------------------
                                    Active property flags
                                    ---------------------
   (+) Dipole Moment


------------------------------------------------------------------------------
                       ORCA ELECTRIC PROPERTIES CALCULATION
------------------------------------------------------------------------------

Dipole Moment Calculation                       ... on
Quadrupole Moment Calculation                   ... off
Polarizability Calculation                      ... off
GBWName                                         ... test.gbw
Electron density                                ... test.scfp
The origin for moment calculation is the CENTER OF MASS  = ( 0.057296, -0.018354 -0.069345)

-------------
DIPOLE MOMENT
-------------
                                X             Y             Z
Electronic contribution:     -6.59896       1.94186       8.20137
Nuclear contribution   :     -0.35676       0.11429       0.43179
                        -----------------------------------------
Total Dipole Moment    :     -6.95572       2.05615       8.63316
                        -----------------------------------------
Magnitude (a.u.)       :     11.27569
Magnitude (Debye)      :     28.66053



--------------------
Rotational spectrum 
--------------------
 
Rotational constants in cm-1:     0.010006     0.009036     0.008924 
Rotational constants in MHz :   299.959976   270.878430   267.531739 

 Dipole components along the rotational axes: 
x,y,z [a.u.] :    11.275578    -0.050559     0.000000 
x,y,z [Debye]:    28.660242    -0.128511     0.000000 

 

Timings for individual modules:

Sum of individual times         ...      712.629 sec (=  11.877 min)
GTO integral calculation        ...       13.868 sec (=   0.231 min)   1.9 %
SCF iterations                  ...      642.602 sec (=  10.710 min)  90.2 %
SCF Gradient evaluation         ...       55.195 sec (=   0.920 min)   7.7 %
Geometry relaxation             ...        0.964 sec (=   0.016 min)   0.1 %
                             ****ORCA TERMINATED NORMALLY****
TOTAL RUN TIME: 0 days 0 hours 11 minutes 59 seconds 846 msec
