
                                 *****************
                                 * O   R   C   A *
                                 *****************

                                            #,                                       
                                            ###                                      
                                            ####                                     
                                            #####                                    
                                            ######                                   
                                           ########,                                 
                                     ,,################,,,,,                         
                               ,,#################################,,                 
                          ,,##########################################,,             
                       ,#########################################, ''#####,          
                    ,#############################################,,   '####,        
                  ,##################################################,,,,####,       
                ,###########''''           ''''###############################       
              ,#####''   ,,,,##########,,,,          '''####'''          '####       
            ,##' ,,,,###########################,,,                        '##       
           ' ,,###''''                  '''############,,,                           
         ,,##''                                '''############,,,,        ,,,,,,###''
      ,#''                                            '''#######################'''  
     '                                                          ''''####''''         
             ,#######,   #######,   ,#######,      ##                                
            ,#'     '#,  ##    ##  ,#'     '#,    #''#        ######   ,####,        
            ##       ##  ##   ,#'  ##            #'  '#       #        #'  '#        
            ##       ##  #######   ##           ,######,      #####,   #    #        
            '#,     ,#'  ##    ##  '#,     ,#' ,#      #,         ##   #,  ,#        
             '#######'   ##     ##  '#######'  #'      '#     #####' # '####'        



                  #######################################################
                  #                        -***-                        #
                  #          Department of theory and spectroscopy      #
                  #    Directorship and core code : Frank Neese         #
                  #        Max Planck Institute fuer Kohlenforschung    #
                  #                Kaiser Wilhelm Platz 1               #
                  #                 D-45470 Muelheim/Ruhr               #
                  #                      Germany                        #
                  #                                                     #
                  #                  All rights reserved                #
                  #                        -***-                        #
                  #######################################################


                         Program Version 5.0.4 -  RELEASE  -


 With contributions from (in alphabetic order):
   Daniel Aravena         : Magnetic Suceptibility
   Michael Atanasov       : Ab Initio Ligand Field Theory (pilot matlab implementation)
   Alexander A. Auer      : GIAO ZORA, VPT2 properties, NMR spectrum
   Ute Becker             : Parallelization
   Giovanni Bistoni       : ED, misc. LED, open-shell LED, HFLD
   Martin Brehm           : Molecular dynamics
   Dmytro Bykov           : SCF Hessian
   Vijay G. Chilkuri      : MRCI spin determinant printing, contributions to CSF-ICE
   Dipayan Datta          : RHF DLPNO-CCSD density
   Achintya Kumar Dutta   : EOM-CC, STEOM-CC
   Dmitry Ganyushin       : Spin-Orbit,Spin-Spin,Magnetic field MRCI
   Miquel Garcia          : C-PCM and meta-GGA Hessian, CC/C-PCM, Gaussian charge scheme
   Yang Guo               : DLPNO-NEVPT2, F12-NEVPT2, CIM, IAO-localization
   Andreas Hansen         : Spin unrestricted coupled pair/coupled cluster methods
   Benjamin Helmich-Paris : MC-RPA, TRAH-SCF, COSX integrals
   Lee Huntington         : MR-EOM, pCC
   Robert Izsak           : Overlap fitted RIJCOSX, COSX-SCS-MP3, EOM
   Marcus Kettner         : VPT2
   Christian Kollmar      : KDIIS, OOCD, Brueckner-CCSD(T), CCSD density, CASPT2, CASPT2-K
   Simone Kossmann        : Meta GGA functionals, TD-DFT gradient, OOMP2, MP2 Hessian
   Martin Krupicka        : Initial AUTO-CI
   Lucas Lang             : DCDCAS
   Marvin Lechner         : AUTO-CI (C++ implementation), FIC-MRCC
   Dagmar Lenk            : GEPOL surface, SMD
   Dimitrios Liakos       : Extrapolation schemes; Compound Job, initial MDCI parallelization
   Dimitrios Manganas     : Further ROCIS development; embedding schemes
   Dimitrios Pantazis     : SARC Basis sets
   Anastasios Papadopoulos: AUTO-CI, single reference methods and gradients
   Taras Petrenko         : DFT Hessian,TD-DFT gradient, ASA, ECA, R-Raman, ABS, FL, XAS/XES, NRVS
   Peter Pinski           : DLPNO-MP2, DLPNO-MP2 Gradient
   Christoph Reimann      : Effective Core Potentials
   Marius Retegan         : Local ZFS, SOC
   Christoph Riplinger    : Optimizer, TS searches, QM/MM, DLPNO-CCSD(T), (RO)-DLPNO pert. Triples
   Tobias Risthaus        : Range-separated hybrids, TD-DFT gradient, RPA, STAB
   Michael Roemelt        : Original ROCIS implementation
   Masaaki Saitow         : Open-shell DLPNO-CCSD energy and density
   Barbara Sandhoefer     : DKH picture change effects
   Avijit Sen             : IP-ROCIS
   Kantharuban Sivalingam : CASSCF convergence, NEVPT2, FIC-MRCI
   Bernardo de Souza      : ESD, SOC TD-DFT
   Georgi Stoychev        : AutoAux, RI-MP2 NMR, DLPNO-MP2 response
   Willem Van den Heuvel  : Paramagnetic NMR
   Boris Wezisla          : Elementary symmetry handling
   Frank Wennmohs         : Technical directorship


 We gratefully acknowledge several colleagues who have allowed us to
 interface, adapt or use parts of their codes:
   Stefan Grimme, W. Hujo, H. Kruse, P. Pracht,  : VdW corrections, initial TS optimization,
                  C. Bannwarth, S. Ehlert          DFT functionals, gCP, sTDA/sTD-DF
   Ed Valeev, F. Pavosevic, A. Kumar             : LibInt (2-el integral package), F12 methods
   Garnet Chan, S. Sharma, J. Yang, R. Olivares  : DMRG
   Ulf Ekstrom                                   : XCFun DFT Library
   Mihaly Kallay                                 : mrcc  (arbitrary order and MRCC methods)
   Jiri Pittner, Ondrej Demel                    : Mk-CCSD
   Frank Weinhold                                : gennbo (NPA and NBO analysis)
   Christopher J. Cramer and Donald G. Truhlar   : smd solvation model
   Lars Goerigk                                  : TD-DFT with DH, B97 family of functionals
   V. Asgeirsson, H. Jonsson                     : NEB implementation
   FAccTs GmbH                                   : IRC, NEB, NEB-TS, DLPNO-Multilevel, CI-OPT
                                                   MM, QMMM, 2- and 3-layer-ONIOM, Crystal-QMMM,
                                                   LR-CPCM, SF, NACMEs, symmetry and pop. for TD-DFT,
                                                   nearIR, NL-DFT gradient (VV10), updates on ESD,
                                                   ML-optimized integration grids
   S Lehtola, MJT Oliveira, MAL Marques          : LibXC Library
   Liviu Ungur et al                             : ANISO software


 Your calculation uses the libint2 library for the computation of 2-el integrals
 For citations please refer to: http://libint.valeyev.net

 Your ORCA version has been built with support for libXC version: 5.1.0
 For citations please refer to: https://tddft.org/programs/libxc/

 This ORCA versions uses:
   CBLAS   interface :  Fast vector & matrix operations
   LAPACKE interface :  Fast linear algebra routines
   SCALAPACK package :  Parallel linear algebra routines
   Shared memory     :  Shared parallel matrices
   BLAS/LAPACK       :  OpenBLAS 0.3.15  USE64BITINT DYNAMIC_ARCH NO_AFFINITY Sandybridge SINGLE_THREADED
        Core in use  :  Sandybridge
   Copyright (c) 2011-2014, The OpenBLAS Project


================================================================================

----- Orbital basis set information -----
Your calculation utilizes the basis: def2-SVP
   F. Weigend and R. Ahlrichs, Phys. Chem. Chem. Phys. 7, 3297 (2005).

================================================================================
                                        WARNINGS
                       Please study these warnings very carefully!
================================================================================


WARNING: your system is open-shell and RHF/RKS was chosen
  ===> : WILL SWITCH to UHF/UKS


INFO   : the flag for use of the SHARK integral package has been found!

================================================================================
                                       INPUT FILE
================================================================================
NAME = Cr_O6_pc6.inp
|  1> !hf sp def2-svp tightscf
|  2> !PAL4
|  3> !ALLPOP
|  4> !LARGEPRINT
|  5> 
|  6> 
|  7> *xyz -9 6 
|  8>     Cr       -0.00000        0.00000        0.00000
|  9>     O       -2.15878        0.00000       -0.00000
| 10>     O        2.15878        0.00000       -0.00000
| 11>     O        0.00000       -2.15878       -0.00000
| 12>     O        0.00000        2.15878       -0.00000
| 13>     O        0.00000       -0.00000        2.15878
| 14>     O        0.00000       -0.00000       -2.15878
| 15> *
| 16> %pointcharges "PointCharges.pc"
| 17> 
| 18> 
| 19> 
| 20> 
| 21>                          ****END OF INPUT****
================================================================================

                       ****************************
                       * Single Point Calculation *
                       ****************************

---------------------------------
CARTESIAN COORDINATES (ANGSTROEM)
---------------------------------
  Cr    -0.000000    0.000000    0.000000
  O     -2.158780    0.000000   -0.000000
  O      2.158780    0.000000   -0.000000
  O      0.000000   -2.158780   -0.000000
  O      0.000000    2.158780   -0.000000
  O      0.000000   -0.000000    2.158780
  O      0.000000   -0.000000   -2.158780

----------------------------
CARTESIAN COORDINATES (A.U.)
----------------------------
  NO LB      ZA    FRAG     MASS         X           Y           Z
   0 Cr   24.0000    0    52.000   -0.000000    0.000000    0.000000
   1 O     8.0000    0    15.999   -4.079503    0.000000   -0.000000
   2 O     8.0000    0    15.999    4.079503    0.000000   -0.000000
   3 O     8.0000    0    15.999    0.000000   -4.079503   -0.000000
   4 O     8.0000    0    15.999    0.000000    4.079503   -0.000000
   5 O     8.0000    0    15.999    0.000000   -0.000000    4.079503
   6 O     8.0000    0    15.999    0.000000   -0.000000   -4.079503

--------------------------------
INTERNAL COORDINATES (ANGSTROEM)
--------------------------------
 Cr     0   0   0     0.000000000000     0.00000000     0.00000000
 O      1   0   0     2.158780000000     0.00000000     0.00000000
 O      1   2   0     2.158780000000   180.00000000     0.00000000
 O      1   2   3     2.158780000000    90.00000000     0.00000000
 O      1   2   4     2.158780000000    90.00000000   180.00000000
 O      1   2   4     2.158780000000    90.00000000   270.00000000
 O      1   2   4     2.158780000000    90.00000000    90.00000000

---------------------------
INTERNAL COORDINATES (A.U.)
---------------------------
 Cr     0   0   0     0.000000000000     0.00000000     0.00000000
 O      1   0   0     4.079502983387     0.00000000     0.00000000
 O      1   2   0     4.079502983387   180.00000000     0.00000000
 O      1   2   3     4.079502983387    90.00000000     0.00000000
 O      1   2   4     4.079502983387    90.00000000   180.00000000
 O      1   2   4     4.079502983387    90.00000000   270.00000000
 O      1   2   4     4.079502983387    90.00000000    90.00000000

---------------------
BASIS SET INFORMATION
---------------------
There are 2 groups of distinct atoms

 Group   1 Type Cr  : 14s9p5d1f contracted to 5s3p2d1f pattern {63311/531/41/1}
 Group   2 Type O   : 7s4p1d contracted to 3s2p1d pattern {511/31/1}

Atom   0Cr   basis set group =>   1
Atom   1O    basis set group =>   2
Atom   2O    basis set group =>   2
Atom   3O    basis set group =>   2
Atom   4O    basis set group =>   2
Atom   5O    basis set group =>   2
Atom   6O    basis set group =>   2

-------------------------
BASIS SET IN INPUT FORMAT
-------------------------

 # Basis set for element : O 
 NewGTO O 
 S 5 
   1    2266.1767785000     -0.0053893504
   2     340.8701019100     -0.0402347214
   3      77.3631351670     -0.1800818421
   4      21.4796449400     -0.4682885766
   5       6.6589433124     -0.4469261716
 S 1 
   1       0.8097597567      1.0000000000
 S 1 
   1       0.2553077223      1.0000000000
 P 3 
   1      17.7215043170      0.0626302488
   2       3.8635505440      0.3333113849
   3       1.0480920883      0.7414863830
 P 1 
   1       0.2764154441      1.0000000000
 D 1 
   1       1.2000000000      1.0000000000
  end;

 # Basis set for element : Cr
 NewGTO Cr
 S 6 
   1   51528.0863490000      0.0017695546
   2    7737.2103487000      0.0135564363
   3    1760.3748470000      0.0671626458
   4     496.8770654400      0.2329590592
   5     161.4652059800      0.4704057698
   6      55.4663522680      0.3573307261
 S 3 
   1     107.5473299900     -0.1060525545
   2      12.4086718970      0.6254398148
   3       5.0423628826      0.4487882079
 S 3 
   1       8.5461640165     -0.2181901209
   2       1.3900441221      0.7042252567
   3       0.5606660288      0.4248855541
 S 1 
   1       0.0714837060      1.0000000000
 S 1 
   1       0.0282506876      1.0000000000
 P 5 
   1     640.4853609600      0.0093555064
   2     150.6971119400      0.0689933385
   3      47.5037552960      0.2634118959
   4      16.9341201650      0.5103450165
   5       6.2409680590      0.3319551295
 P 3 
   1       3.0885463206      0.3291768267
   2       1.1791047769      0.5549138519
   3       0.4336977443      0.2381841286
 D 4 
   1      27.5594794260      0.0369501403
   2       7.4687020327      0.1882151978
   3       2.4345903574      0.4464124424
   4       0.7824475481      0.5681617303
 D 1 
   1       0.2199577431      1.0000000000
 P 1 
   1       0.1206750000      1.0000000000
 F 1 
   1       1.1470000000      1.0000000000
  end;


Checking for AutoStart:
The File: Cr_O6_pc6.gbw exists
Trying to determine its content:
     ... Fine, the file contains calculation information
     ... Fine, the calculation information was read
     ... Fine, the file contains a basis set
     ... Fine, the basis set was read
     ... Fine, the file contains a geometry
     ... Fine, the geometry was read
     ... The file does not contain orbitals - skipping AutoStart


           ************************************************************
           *        Program running with 4 parallel MPI-processes     *
           *              working on a common directory               *
           ************************************************************
------------------------------------------------------------------------------
                           ORCA GTO INTEGRAL CALCULATION
------------------------------------------------------------------------------
------------------------------------------------------------------------------
                   ___                                                        
                  /   \      - P O W E R E D   B Y -                         
                 /     \                                                     
                 |  |  |   _    _      __       _____    __    __             
                 |  |  |  | |  | |    /  \     |  _  \  |  |  /  |          
                  \  \/   | |  | |   /    \    | | | |  |  | /  /          
                 / \  \   | |__| |  /  /\  \   | |_| |  |  |/  /          
                |  |  |   |  __  | /  /__\  \  |    /   |      \           
                |  |  |   | |  | | |   __   |  |    \   |  |\   \          
                \     /   | |  | | |  |  |  |  | |\  \  |  | \   \       
                 \___/    |_|  |_| |__|  |__|  |_| \__\ |__|  \__/        
                                                                              
                      - O R C A' S   B I G   F R I E N D -                    
                                      &                                       
                       - I N T E G R A L  F E E D E R -                       
                                                                              
 v1 FN, 2020, v2 2021                                                         
------------------------------------------------------------------------------


Reading SHARK input file Cr_O6_pc6.SHARKINP.tmp ... SHARK General Contraction Test:  Segmented basis detected
   -> Pre-screening matrix *NOT* found on disk - recalculating with NShells=47
   -> Leaving CheckPreScreeningMatrix
ok
----------------------
SHARK INTEGRAL PACKAGE
----------------------

Number of atoms                             ...      7
Number of basis functions                   ...    115
Number of shells                            ...     47
Maximum angular momentum                    ...      3
Integral batch strategy                     ... SHARK/LIBINT Hybrid
RI-J (if used) integral strategy            ... SPLIT-RIJ (Revised 2003 algorithm where possible)
Printlevel                                  ...      2
Contraction scheme used                     ... SEGMENTED contraction
Coulomb Range Separation                    ... NOT USED
Exchange Range Separation                   ... NOT USED
Finite Nucleus Model                        ... NOT USED
Auxiliary Coulomb fitting basis             ... NOT available
Auxiliary J/K fitting basis                 ... NOT available
Auxiliary Correlation fitting basis         ... NOT available
Auxiliary 'external' fitting basis          ... NOT available
Integral threshold                          ...     2.500000e-11
Primitive cut-off                           ...     2.500000e-12
Primitive pair pre-selection threshold      ...     2.500000e-12

Calculating pre-screening integrals         ... done (  0.0 sec) Dimension = 47
Organizing shell pair data                  ... done (  0.0 sec)
Shell pair information
Total number of shell pairs                 ...      1128
Shell pairs after pre-screening             ...      1002
Total number of primitive shell pairs       ...      5269
Primitive shell pairs kept                  ...      3313
          la=0 lb=0:    240 shell pairs
          la=1 lb=0:    303 shell pairs
          la=1 lb=1:    117 shell pairs
          la=2 lb=0:    148 shell pairs
          la=2 lb=1:    114 shell pairs
          la=2 lb=2:     33 shell pairs
          la=3 lb=0:     23 shell pairs
          la=3 lb=1:     15 shell pairs
          la=3 lb=2:      8 shell pairs
          la=3 lb=3:      1 shell pairs

Reading point charge file                   ... ok (6 point charges)
Calculating one electron integrals          ... done (  0.0 sec)
Calculating Nuclear repulsion               ... (+Point charges) done (  0.0 sec) ENN=    600.751634261460 Eh

SHARK setup successfully completed in   0.4 seconds

Maximum memory used throughout the entire GTOINT-calculation: 13.5 MB
ENUC WAS=  0.000000000
ENUC IS =  0.000000000


           ************************************************************
           *        Program running with 4 parallel MPI-processes     *
           *              working on a common directory               *
           ************************************************************
-------------------------------------------------------------------------------
                                 ORCA SCF
-------------------------------------------------------------------------------

------------
SCF SETTINGS
------------
Hamiltonian:
 Ab initio Hamiltonian  Method          .... Hartree-Fock(GTOs)


General Settings:
 Integral files         IntName         .... Cr_O6_pc6
 Hartree-Fock type      HFTyp           .... UHF
 Total Charge           Charge          ....   -9
 Multiplicity           Mult            ....    6
 Number of Electrons    NEL             ....   81
 Basis Dimension        Dim             ....  115
 Nuclear Repulsion      ENuc            ....    600.7516342615 Eh

Convergence Acceleration:
 DIIS                   CNVDIIS         .... on
   Start iteration      DIISMaxIt       ....    12
   Startup error        DIISStart       ....  0.200000
   # of expansion vecs  DIISMaxEq       ....     5
   Bias factor          DIISBfac        ....   1.050
   Max. coefficient     DIISMaxC        ....  10.000
 Trust-Rad. Augm. Hess. CNVTRAH         .... auto
   Auto Start mean grad. ratio tolernc. ....  1.125000
   Auto Start start iteration           ....    20
   Auto Start num. interpolation iter.  ....    10
   Max. Number of Micro iterations      ....    16
   Max. Number of Macro iterations      .... Maxiter - #DIIS iter
   Number of Davidson start vectors     ....     2
   Converg. threshold I  (grad. norm)   ....   1.000e-05
   Converg. threshold II (energy diff.) ....   1.000e-08
   Grad. Scal. Fac. for Micro threshold ....   0.100
   Minimum threshold for Micro iter.    ....   0.010
   NR start threshold (gradient norm)   ....   0.001
   Initial trust radius                 ....   0.400
   Minimum AH scaling param. (alpha)    ....   1.000
   Maximum AH scaling param. (alpha)    .... 1000.000
   Orbital update algorithm             .... Taylor
   White noise on init. David. guess    .... on
   Maximum white noise                  ....   0.010
   Quad. conv. algorithm                .... NR
 SOSCF                  CNVSOSCF        .... off
 Level Shifting         CNVShift        .... on
   Level shift para.    LevelShift      ....    0.2500
   Turn off err/grad.   ShiftErr        ....    0.0010
 Zerner damping         CNVZerner       .... off
 Static damping         CNVDamp         .... on
   Fraction old density DampFac         ....    0.7000
   Max. Damping (<1)    DampMax         ....    0.9800
   Min. Damping (>=0)   DampMin         ....    0.0000
   Turn off err/grad.   DampErr         ....    0.1000
 Fernandez-Rico         CNVRico         .... off

SCF Procedure:
 Maximum # iterations   MaxIter         ....   125
 SCF integral mode      SCFMode         .... Direct
   Integral package                     .... SHARK and LIBINT hybrid scheme
 Reset frequency        DirectResetFreq ....    20
 Integral Threshold     Thresh          ....  2.500e-11 Eh
 Primitive CutOff       TCut            ....  2.500e-12 Eh

Convergence Tolerance:
 Convergence Check Mode ConvCheckMode   .... Total+1el-Energy
 Convergence forced     ConvForced      .... 0
 Energy Change          TolE            ....  1.000e-08 Eh
 1-El. energy change                    ....  1.000e-05 Eh
 DIIS Error             TolErr          ....  5.000e-07


Diagonalization of the overlap matrix:
Smallest eigenvalue                        ... 2.778e-02
Time for diagonalization                   ...    0.021 sec
Threshold for overlap eigenvalues          ... 1.000e-08
Number of eigenvalues below threshold      ... 0
Time for construction of square roots      ...    0.001 sec
Total time needed                          ...    0.023 sec

SHARK General Contraction Test:  Segmented basis detected
   -> Pre-screening matrix found on disk - Trying to read with NShells=47
   -> Passing Pre-screening matrix on to SHARK ...ok
   -> Leaving CheckPreScreeningMatrix
----------------------
SHARK INTEGRAL PACKAGE
----------------------

Number of atoms                             ...      7
Number of basis functions                   ...    115
Number of shells                            ...     47
Maximum angular momentum                    ...      3
Integral batch strategy                     ... SHARK/LIBINT Hybrid
RI-J (if used) integral strategy            ... SPLIT-RIJ (Revised 2003 algorithm where possible)
Printlevel                                  ...      2
Contraction scheme used                     ... SEGMENTED contraction
Coulomb Range Separation                    ... NOT USED
Exchange Range Separation                   ... NOT USED
Finite Nucleus Model                        ... NOT USED
Auxiliary Coulomb fitting basis             ... NOT available
Auxiliary J/K fitting basis                 ... NOT available
Auxiliary Correlation fitting basis         ... NOT available
Auxiliary 'external' fitting basis          ... NOT available
Integral threshold                          ...     2.500000e-11
Primitive cut-off                           ...     2.500000e-12
Primitive pair pre-selection threshold      ...     2.500000e-12

Time for model grid setup =    0.125 sec

------------------------------
INITIAL GUESS: MODEL POTENTIAL
------------------------------
Loading Hartree-Fock densities                     ... done
Calculating cut-offs                               ... done
Initializing the effective Hamiltonian             ... done
Setting up the integral package (SHARK)            ... done
Starting the Coulomb interaction                   ...     -> Generating integrals - 
    -> L=0 0 :     0.015 sec done=     20502 skipped=       936 prim-skipped=         0
    -> L=1 0 :     0.006 sec done=     27945 skipped=       150 prim-skipped=         0
    -> L=1 1 :     0.002 sec done=     10785 skipped=        72 prim-skipped=         0
    -> L=2 0 :     0.009 sec done=     13588 skipped=       146 prim-skipped=         0
    -> L=2 1 :     0.004 sec done=     10460 skipped=       118 prim-skipped=         0
    -> L=2 2 :     0.011 sec done=      3021 skipped=        36 prim-skipped=         0
    -> L=3 0 :     0.008 sec done=      2133 skipped=         6 prim-skipped=         0
    -> L=3 1 :     0.007 sec done=      1395 skipped=         0 prim-skipped=         0
    -> L=3 2 :     0.002 sec done=       744 skipped=         0 prim-skipped=         0
    -> L=3 3 :     0.010 sec done=        93 skipped=         0 prim-skipped=         0
done (   0.1 sec)
Reading the grid                                   ... done
Mapping shells                                     ... done
Starting the XC term evaluation                    ... done (   0.0 sec)
Transforming the Hamiltonian                       ... done (   0.0 sec)
Diagonalizing the Hamiltonian                      ... done (   0.0 sec)
Back transforming the eigenvectors                 ... done (   0.0 sec)
Now organizing SCF variables                       ... done
                      ------------------
                      INITIAL GUESS DONE (   0.3 sec)
                      ------------------
----------------------
INITIAL GUESS ORBITALS
----------------------
                      0         1         2         3         4         5   
                 -215.93808 -26.23290 -22.65115 -22.65115 -22.65115 -21.10590
                   1.00000   1.00000   1.00000   1.00000   1.00000   1.00000
                  --------  --------  --------  --------  --------  --------
  0Cr  1s        -0.995285 -0.330913 -0.000000  0.000000  0.000000 -0.000209
  0Cr  2s        -0.015271  1.040658  0.000000 -0.000000 -0.000000  0.000385
  0Cr  3s         0.004034  0.025571 -0.000000  0.000000  0.000000 -0.003543
  0Cr  4s        -0.004538 -0.019519  0.000000 -0.000000 -0.000000  0.016882
  0Cr  5s         0.001371  0.005973 -0.000000 -0.000000 -0.000000  0.001006
  0Cr  1pz        0.000000 -0.000000 -0.698961 -0.629772  0.315038 -0.000000
  0Cr  1px       -0.000000  0.000000 -0.294386 -0.141902 -0.936808 -0.000000
  0Cr  1py       -0.000000 -0.000000 -0.639686  0.753432  0.086892 -0.000000
  0Cr  2pz       -0.000000  0.000000 -0.015913 -0.014338  0.007173  0.000000
  0Cr  2px       -0.000000 -0.000000 -0.006702 -0.003231 -0.021328  0.000000
  0Cr  2py        0.000000  0.000000 -0.014564  0.017153  0.001978  0.000000
  0Cr  1dz2       0.000000  0.000000  0.000000  0.000000  0.000000 -0.000000
  0Cr  1dxz      -0.000000  0.000000  0.000000 -0.000000  0.000000 -0.000000
  0Cr  1dyz       0.000000  0.000000  0.000000 -0.000000  0.000000 -0.000000
  0Cr  1dx2y2    -0.000000 -0.000000  0.000000  0.000000 -0.000000  0.000000
  0Cr  1dxy       0.000000  0.000000 -0.000000  0.000000 -0.000000  0.000000
  0Cr  2dz2      -0.000000 -0.000000 -0.000000 -0.000000 -0.000000  0.000000
  0Cr  2dxz       0.000000  0.000000  0.000000  0.000000 -0.000000 -0.000000
  0Cr  2dyz      -0.000000 -0.000000 -0.000000  0.000000 -0.000000  0.000000
  0Cr  2dx2y2     0.000000  0.000000  0.000000 -0.000000  0.000000 -0.000000
  0Cr  2dxy      -0.000000 -0.000000 -0.000000  0.000000  0.000000 -0.000000
  0Cr  3pz        0.000000 -0.000000  0.006827  0.006151 -0.003077 -0.000000
  0Cr  3px        0.000000  0.000000  0.002875  0.001386  0.009150 -0.000000
  0Cr  3py       -0.000000 -0.000000  0.006248 -0.007359 -0.000849 -0.000000
  0Cr  1f0        0.000000 -0.000000  0.000139  0.000125 -0.000063 -0.000000
  0Cr  1f+1      -0.000000 -0.000000 -0.000036 -0.000017 -0.000114  0.000000
  0Cr  1f-1       0.000000  0.000000 -0.000078  0.000092  0.000011  0.000000
  0Cr  1f+2       0.000000  0.000000  0.000000 -0.000000  0.000000 -0.000000
  0Cr  1f-2      -0.000000 -0.000000 -0.000000 -0.000000 -0.000000  0.000000
  0Cr  1f+3      -0.000000 -0.000000 -0.000046 -0.000022 -0.000147  0.000000
  0Cr  1f-3      -0.000000 -0.000000  0.000101 -0.000118 -0.000014 -0.000000
  1O   1s        -0.000045 -0.000153 -0.000020 -0.000010 -0.000064 -0.402914
  1O   2s        -0.000442 -0.001758 -0.000409 -0.000197 -0.001300  0.019878
  1O   3s         0.001056  0.004344  0.001296  0.000625  0.004124 -0.012778
  1O   1pz        0.000000 -0.000000  0.000249  0.000225 -0.000112 -0.000000
  1O   1px       -0.000108 -0.000395  0.000007  0.000004  0.000024 -0.000301
  1O   1py       -0.000000 -0.000000  0.000228 -0.000269 -0.000031  0.000000
  1O   2pz       -0.000000  0.000000 -0.000979 -0.000882  0.000441  0.000000
  1O   2px        0.000564  0.002262  0.000443  0.000213  0.001408 -0.002469
  1O   2py        0.000000  0.000000 -0.000896  0.001055  0.000122 -0.000000
  1O   1dz2      -0.000023 -0.000080 -0.000009 -0.000004 -0.000029  0.000022
  1O   1dxz      -0.000000  0.000000 -0.000156 -0.000140  0.000070  0.000000
  1O   1dyz      -0.000000 -0.000000 -0.000000 -0.000000 -0.000000 -0.000000
  1O   1dx2y2     0.000039  0.000139  0.000016  0.000008  0.000051 -0.000039
  1O   1dxy      -0.000000  0.000000 -0.000142  0.000168  0.000019  0.000000
  2O   1s        -0.000045 -0.000153  0.000020  0.000010  0.000064 -0.402914
  2O   2s        -0.000442 -0.001758  0.000409  0.000197  0.001300  0.019878
  2O   3s         0.001056  0.004344 -0.001296 -0.000625 -0.004124 -0.012778
  2O   1pz        0.000000 -0.000000  0.000249  0.000225 -0.000112 -0.000000
  2O   1px        0.000108  0.000395  0.000007  0.000004  0.000024  0.000301
  2O   1py       -0.000000 -0.000000  0.000228 -0.000269 -0.000031  0.000000
  2O   2pz        0.000000  0.000000 -0.000979 -0.000882  0.000441  0.000000
  2O   2px       -0.000564 -0.002262  0.000443  0.000213  0.001408  0.002469
  2O   2py        0.000000  0.000000 -0.000896  0.001055  0.000122 -0.000000
  2O   1dz2      -0.000023 -0.000080  0.000009  0.000004  0.000029  0.000022
  2O   1dxz      -0.000000 -0.000000  0.000156  0.000140 -0.000070 -0.000000
  2O   1dyz       0.000000  0.000000 -0.000000 -0.000000 -0.000000 -0.000000
  2O   1dx2y2     0.000039  0.000139 -0.000016 -0.000008 -0.000051 -0.000039
  2O   1dxy      -0.000000 -0.000000  0.000142 -0.000168 -0.000019 -0.000000
  3O   1s        -0.000045 -0.000153 -0.000044  0.000051  0.000006 -0.402914
  3O   2s        -0.000442 -0.001758 -0.000888  0.001046  0.000121  0.019878
  3O   3s         0.001056  0.004344  0.002816 -0.003317 -0.000382 -0.012778
  3O   1pz        0.000000 -0.000000  0.000249  0.000225 -0.000112 -0.000000
  3O   1px        0.000000  0.000000  0.000105  0.000051  0.000334 -0.000000
  3O   1py       -0.000108 -0.000395  0.000016 -0.000019 -0.000002 -0.000301
  3O   2pz       -0.000000  0.000000 -0.000979 -0.000882  0.000441  0.000000
  3O   2px       -0.000000 -0.000000 -0.000412 -0.000199 -0.001312  0.000000
  3O   2py        0.000564  0.002262  0.000962 -0.001133 -0.000131 -0.002469
  3O   1dz2      -0.000023 -0.000080 -0.000020  0.000024  0.000003  0.000022
  3O   1dxz       0.000000 -0.000000 -0.000000 -0.000000 -0.000000  0.000000
  3O   1dyz      -0.000000  0.000000 -0.000156 -0.000140  0.000070  0.000000
  3O   1dx2y2    -0.000039 -0.000139 -0.000035  0.000041  0.000005  0.000039
  3O   1dxy      -0.000000 -0.000000 -0.000066 -0.000032 -0.000208  0.000000
  4O   1s        -0.000045 -0.000153  0.000044 -0.000051 -0.000006 -0.402914
  4O   2s        -0.000442 -0.001758  0.000888 -0.001046 -0.000121  0.019878
  4O   3s         0.001056  0.004344 -0.002816  0.003317  0.000382 -0.012778
  4O   1pz        0.000000 -0.000000  0.000249  0.000225 -0.000112 -0.000000
  4O   1px        0.000000  0.000000  0.000105  0.000051  0.000334 -0.000000
  4O   1py        0.000108  0.000395  0.000016 -0.000019 -0.000002  0.000301
  4O   2pz       -0.000000  0.000000 -0.000979 -0.000882  0.000441  0.000000
  4O   2px       -0.000000 -0.000000 -0.000412 -0.000199 -0.001312  0.000000
  4O   2py       -0.000564 -0.002262  0.000962 -0.001133 -0.000131  0.002469
  4O   1dz2      -0.000023 -0.000080  0.000020 -0.000024 -0.000003  0.000022
  4O   1dxz       0.000000  0.000000 -0.000000 -0.000000 -0.000000  0.000000
  4O   1dyz      -0.000000 -0.000000  0.000156  0.000140 -0.000070 -0.000000
  4O   1dx2y2    -0.000039 -0.000139  0.000035 -0.000041 -0.000005  0.000039
  4O   1dxy       0.000000  0.000000  0.000066  0.000032  0.000208 -0.000000
  5O   1s        -0.000045 -0.000153  0.000048  0.000043 -0.000021 -0.402914
  5O   2s        -0.000442 -0.001758  0.000970  0.000874 -0.000437  0.019878
  5O   3s         0.001056  0.004344 -0.003077 -0.002772  0.001387 -0.012778
  5O   1pz        0.000108  0.000395  0.000018  0.000016 -0.000008  0.000301
  5O   1px        0.000000  0.000000  0.000105  0.000051  0.000334 -0.000000
  5O   1py       -0.000000 -0.000000  0.000228 -0.000269 -0.000031  0.000000
  5O   2pz       -0.000564 -0.002262  0.001051  0.000947 -0.000474  0.002469
  5O   2px       -0.000000 -0.000000 -0.000412 -0.000199 -0.001312  0.000000
  5O   2py        0.000000  0.000000 -0.000896  0.001055  0.000122 -0.000000
  5O   1dz2       0.000045  0.000160 -0.000044 -0.000040  0.000020 -0.000045
  5O   1dxz       0.000000  0.000000  0.000066  0.000032  0.000208 -0.000000
  5O   1dyz       0.000000 -0.000000  0.000142 -0.000168 -0.000019 -0.000000
  5O   1dx2y2    -0.000000 -0.000000  0.000000 -0.000000  0.000000  0.000000
  5O   1dxy       0.000000 -0.000000 -0.000000 -0.000000  0.000000 -0.000000
  6O   1s        -0.000045 -0.000153 -0.000048 -0.000043  0.000021 -0.402914
  6O   2s        -0.000442 -0.001758 -0.000970 -0.000874  0.000437  0.019878
  6O   3s         0.001056  0.004344  0.003077  0.002772 -0.001387 -0.012778
  6O   1pz       -0.000108 -0.000395  0.000018  0.000016 -0.000008 -0.000301
  6O   1px        0.000000  0.000000  0.000105  0.000051  0.000334 -0.000000
  6O   1py       -0.000000 -0.000000  0.000228 -0.000269 -0.000031  0.000000
  6O   2pz        0.000564  0.002262  0.001051  0.000947 -0.000474 -0.002469
  6O   2px       -0.000000 -0.000000 -0.000412 -0.000199 -0.001312  0.000000
  6O   2py        0.000000  0.000000 -0.000896  0.001055  0.000122 -0.000000
  6O   1dz2       0.000045  0.000160  0.000044  0.000040 -0.000020 -0.000045
  6O   1dxz       0.000000 -0.000000 -0.000066 -0.000032 -0.000208  0.000000
  6O   1dyz       0.000000  0.000000 -0.000142  0.000168  0.000019  0.000000
  6O   1dx2y2    -0.000000 -0.000000 -0.000000  0.000000 -0.000000  0.000000
  6O   1dxy       0.000000  0.000000  0.000000 -0.000000 -0.000000 -0.000000
                      6         7         8         9        10        11   
                 -21.10566 -21.10566 -21.10566 -21.10553 -21.10553  -4.77846
                   1.00000   1.00000   1.00000   1.00000   1.00000   1.00000
                  --------  --------  --------  --------  --------  --------
  0Cr  1s        -0.000000 -0.000000  0.000000  0.000000 -0.000000 -0.122532
  0Cr  2s         0.000000  0.000000 -0.000000 -0.000000  0.000000  0.456749
  0Cr  3s        -0.000000 -0.000000  0.000000  0.000000 -0.000000 -1.080553
  0Cr  4s         0.000000  0.000000 -0.000000 -0.000000  0.000000 -0.003127
  0Cr  5s        -0.000000  0.000000 -0.000000 -0.000000  0.000000  0.001264
  0Cr  1pz        0.000244  0.000136 -0.000174 -0.000000  0.000000  0.000000
  0Cr  1px       -0.000136 -0.000112 -0.000278  0.000000  0.000000 -0.000000
  0Cr  1py       -0.000174  0.000278 -0.000027  0.000000 -0.000000  0.000000
  0Cr  2pz       -0.000761 -0.000423  0.000545  0.000000 -0.000000 -0.000000
  0Cr  2px        0.000426  0.000350  0.000867 -0.000000 -0.000000  0.000000
  0Cr  2py        0.000543 -0.000868  0.000084  0.000000  0.000000 -0.000000
  0Cr  1dz2      -0.000000 -0.000000 -0.000000 -0.000433 -0.000126 -0.000000
  0Cr  1dxz      -0.000000  0.000000 -0.000000  0.000000 -0.000000 -0.000000
  0Cr  1dyz      -0.000000  0.000000  0.000000 -0.000000  0.000000 -0.000000
  0Cr  1dx2y2     0.000000 -0.000000 -0.000000  0.000126 -0.000433 -0.000000
  0Cr  1dxy       0.000000 -0.000000  0.000000 -0.000000 -0.000000 -0.000000
  0Cr  2dz2       0.000000  0.000000  0.000000  0.005533  0.001608 -0.000000
  0Cr  2dxz       0.000000 -0.000000  0.000000 -0.000000 -0.000000  0.000000
  0Cr  2dyz       0.000000 -0.000000  0.000000 -0.000000 -0.000000  0.000000
  0Cr  2dx2y2    -0.000000  0.000000  0.000000 -0.001608  0.005533  0.000000
  0Cr  2dxy       0.000000 -0.000000 -0.000000  0.000000  0.000000  0.000000
  0Cr  3pz        0.007419  0.004127 -0.005307 -0.000000  0.000000  0.000000
  0Cr  3px       -0.004149 -0.003409 -0.008451  0.000000  0.000000 -0.000000
  0Cr  3py       -0.005290  0.008461 -0.000816  0.000000 -0.000000 -0.000000
  0Cr  1f0        0.000475  0.000264 -0.000340 -0.000000  0.000000  0.000000
  0Cr  1f+1       0.000163  0.000134  0.000331 -0.000000 -0.000000  0.000000
  0Cr  1f-1       0.000207 -0.000332  0.000032 -0.000000  0.000000 -0.000000
  0Cr  1f+2      -0.000000 -0.000000 -0.000000 -0.000000 -0.000000 -0.000000
  0Cr  1f-2       0.000000  0.000000  0.000000 -0.000000 -0.000000 -0.000000
  0Cr  1f+3       0.000210  0.000173  0.000428 -0.000000 -0.000000 -0.000000
  0Cr  1f-3      -0.000268  0.000428 -0.000041  0.000000 -0.000000  0.000000
  1O   1s        -0.289258 -0.237660 -0.589244  0.411523 -0.394552 -0.000405
  1O   2s         0.013329  0.010952  0.027153 -0.018384  0.017626  0.000017
  1O   3s        -0.007143 -0.005868 -0.014550  0.008887 -0.008521 -0.001989
  1O   1pz        0.000162  0.000090 -0.000116 -0.000000  0.000000  0.000000
  1O   1px       -0.000292 -0.000240 -0.000595  0.000560 -0.000537 -0.000488
  1O   1py       -0.000115  0.000184 -0.000018 -0.000000 -0.000000  0.000000
  1O   2pz       -0.000824 -0.000459  0.000590  0.000000 -0.000000 -0.000000
  1O   2px       -0.001363 -0.001120 -0.002776  0.001734 -0.001662 -0.002107
  1O   2py        0.000588 -0.000940  0.000091 -0.000000  0.000000 -0.000000
  1O   1dz2       0.000007  0.000006  0.000014 -0.000106  0.000056  0.000289
  1O   1dxz      -0.000167 -0.000093  0.000120  0.000000 -0.000000 -0.000000
  1O   1dyz      -0.000000  0.000000  0.000000 -0.000000  0.000000  0.000000
  1O   1dx2y2    -0.000012 -0.000010 -0.000024  0.000132 -0.000153 -0.000501
  1O   1dxy       0.000119 -0.000191  0.000018 -0.000000  0.000000  0.000000
  2O   1s         0.289258  0.237660  0.589244  0.411523 -0.394552 -0.000405
  2O   2s        -0.013329 -0.010952 -0.027153 -0.018384  0.017626  0.000017
  2O   3s         0.007143  0.005868  0.014550  0.008887 -0.008521 -0.001989
  2O   1pz        0.000162  0.000090 -0.000116 -0.000000  0.000000  0.000000
  2O   1px       -0.000292 -0.000240 -0.000595 -0.000560  0.000537  0.000488
  2O   1py       -0.000115  0.000184 -0.000018  0.000000 -0.000000  0.000000
  2O   2pz       -0.000824 -0.000459  0.000590  0.000000 -0.000000 -0.000000
  2O   2px       -0.001363 -0.001120 -0.002776 -0.001734  0.001662  0.002107
  2O   2py        0.000588 -0.000940  0.000091 -0.000000  0.000000 -0.000000
  2O   1dz2      -0.000007 -0.000006 -0.000014 -0.000106  0.000056  0.000289
  2O   1dxz       0.000167  0.000093 -0.000120 -0.000000  0.000000  0.000000
  2O   1dyz       0.000000  0.000000 -0.000000 -0.000000  0.000000  0.000000
  2O   1dx2y2     0.000012  0.000010  0.000024  0.000132 -0.000153 -0.000501
  2O   1dxy      -0.000119  0.000191 -0.000018  0.000000 -0.000000 -0.000000
  3O   1s        -0.368874  0.589965 -0.056872  0.135930  0.553666 -0.000405
  3O   2s         0.016998 -0.027186  0.002621 -0.006072 -0.024734  0.000017
  3O   3s        -0.009108  0.014568 -0.001404  0.002936  0.011957 -0.001989
  3O   1pz        0.000162  0.000090 -0.000116 -0.000000  0.000000  0.000000
  3O   1px       -0.000090 -0.000074 -0.000184  0.000000  0.000000 -0.000000
  3O   1py       -0.000372  0.000595 -0.000057  0.000185  0.000754 -0.000488
  3O   2pz       -0.000824 -0.000459  0.000590  0.000000 -0.000000 -0.000000
  3O   2px        0.000461  0.000379  0.000939 -0.000000 -0.000000  0.000000
  3O   2py       -0.001738  0.002779 -0.000268  0.000573  0.002333 -0.002107
  3O   1dz2       0.000009 -0.000014  0.000001 -0.000060 -0.000105  0.000289
  3O   1dxz       0.000000  0.000000 -0.000000  0.000000  0.000000 -0.000000
  3O   1dyz      -0.000167 -0.000093  0.000120  0.000000 -0.000000 -0.000000
  3O   1dx2y2     0.000015 -0.000024  0.000002 -0.000029 -0.000199  0.000501
  3O   1dxy       0.000094  0.000077  0.000191 -0.000000 -0.000000  0.000000
  4O   1s         0.368874 -0.589965  0.056872  0.135930  0.553666 -0.000405
  4O   2s        -0.016998  0.027186 -0.002621 -0.006072 -0.024734  0.000017
  4O   3s         0.009108 -0.014568  0.001404  0.002936  0.011957 -0.001989
  4O   1pz        0.000162  0.000090 -0.000116 -0.000000  0.000000  0.000000
  4O   1px       -0.000090 -0.000074 -0.000184  0.000000  0.000000  0.000000
  4O   1py       -0.000372  0.000595 -0.000057 -0.000185 -0.000754  0.000488
  4O   2pz       -0.000824 -0.000459  0.000590  0.000000 -0.000000 -0.000000
  4O   2px        0.000461  0.000379  0.000939 -0.000000 -0.000000 -0.000000
  4O   2py       -0.001738  0.002779 -0.000268 -0.000573 -0.002333  0.002107
  4O   1dz2      -0.000009  0.000014 -0.000001 -0.000060 -0.000105  0.000289
  4O   1dxz      -0.000000 -0.000000 -0.000000  0.000000  0.000000 -0.000000
  4O   1dyz       0.000167  0.000093 -0.000120 -0.000000  0.000000  0.000000
  4O   1dx2y2    -0.000015  0.000024 -0.000002 -0.000029 -0.000199  0.000501
  4O   1dxy      -0.000094 -0.000077 -0.000191  0.000000  0.000000 -0.000000
  5O   1s        -0.517323 -0.287785  0.370024 -0.547454 -0.159114 -0.000405
  5O   2s         0.023839  0.013262 -0.017051  0.024456  0.007108  0.000017
  5O   3s        -0.012774 -0.007106  0.009137 -0.011823 -0.003436 -0.001989
  5O   1pz        0.000522  0.000290 -0.000373  0.000745  0.000217  0.000488
  5O   1px       -0.000090 -0.000074 -0.000184  0.000000  0.000000 -0.000000
  5O   1py       -0.000115  0.000184 -0.000018  0.000000 -0.000000  0.000000
  5O   2pz        0.002437  0.001356 -0.001743  0.002307  0.000670  0.002107
  5O   2px        0.000461  0.000379  0.000939 -0.000000 -0.000000  0.000000
  5O   2py        0.000588 -0.000940  0.000091 -0.000000  0.000000 -0.000000
  5O   1dz2      -0.000024 -0.000013  0.000017 -0.000223 -0.000065 -0.000579
  5O   1dxz      -0.000094 -0.000077 -0.000191  0.000000  0.000000  0.000000
  5O   1dyz      -0.000119  0.000191 -0.000018  0.000000 -0.000000  0.000000
  5O   1dx2y2     0.000000 -0.000000 -0.000000  0.000011 -0.000036 -0.000000
  5O   1dxy       0.000000 -0.000000  0.000000  0.000000  0.000000  0.000000
  6O   1s         0.517323  0.287785 -0.370024 -0.547454 -0.159114 -0.000405
  6O   2s        -0.023839 -0.013262  0.017051  0.024456  0.007108  0.000017
  6O   3s         0.012774  0.007106 -0.009137 -0.011823 -0.003436 -0.001989
  6O   1pz        0.000522  0.000290 -0.000373 -0.000745 -0.000217 -0.000488
  6O   1px       -0.000090 -0.000074 -0.000184  0.000000  0.000000  0.000000
  6O   1py       -0.000115  0.000184 -0.000018  0.000000 -0.000000  0.000000
  6O   2pz        0.002437  0.001356 -0.001743 -0.002307 -0.000670 -0.002107
  6O   2px        0.000461  0.000379  0.000939 -0.000000 -0.000000  0.000000
  6O   2py        0.000588 -0.000940  0.000091 -0.000000  0.000000 -0.000000
  6O   1dz2       0.000024  0.000013 -0.000017 -0.000223 -0.000065 -0.000579
  6O   1dxz       0.000094  0.000077  0.000191 -0.000000 -0.000000  0.000000
  6O   1dyz       0.000119 -0.000191  0.000018 -0.000000  0.000000  0.000000
  6O   1dx2y2     0.000000 -0.000000 -0.000000  0.000011 -0.000036  0.000000
  6O   1dxy      -0.000000  0.000000 -0.000000 -0.000000  0.000000 -0.000000
                     12        13        14        15        16        17   
                  -3.78326  -3.78326  -3.78326  -3.38015  -3.38015  -3.37587
                   1.00000   1.00000   1.00000   1.00000   1.00000   1.00000
                  --------  --------  --------  --------  --------  --------
  0Cr  1s        -0.000000 -0.000000 -0.000000  0.000000  0.000000 -0.002301
  0Cr  2s        -0.000000  0.000000  0.000000 -0.000000 -0.000000  0.004728
  0Cr  3s        -0.000000 -0.000000  0.000000  0.000000  0.000000 -0.038554
  0Cr  4s         0.000000  0.000000 -0.000000 -0.000000 -0.000000  0.260739
  0Cr  5s        -0.000000 -0.000000  0.000000  0.000000  0.000000 -0.136095
  0Cr  1pz        0.007515  0.008517 -0.386524 -0.000000  0.000000  0.000000
  0Cr  1px        0.074485  0.379322  0.009806  0.000000 -0.000000  0.000000
  0Cr  1py        0.379374 -0.074643  0.005731  0.000000 -0.000000  0.000000
  0Cr  2pz       -0.020720 -0.023482  1.065684  0.000000 -0.000000 -0.000000
  0Cr  2px       -0.205362 -1.045830 -0.027037 -0.000000  0.000000 -0.000000
  0Cr  2py       -1.045974  0.205799 -0.015802 -0.000000  0.000000 -0.000000
  0Cr  1dz2       0.000000  0.000000 -0.000000  0.003723  0.009807  0.000000
  0Cr  1dxz       0.000000  0.000000  0.000000 -0.000000  0.000000  0.000000
  0Cr  1dyz       0.000000  0.000000  0.000000 -0.000000 -0.000000 -0.000000
  0Cr  1dx2y2    -0.000000 -0.000000 -0.000000  0.009807 -0.003723 -0.000000
  0Cr  1dxy       0.000000 -0.000000 -0.000000  0.000000  0.000000  0.000000
  0Cr  2dz2      -0.000000 -0.000000  0.000000 -0.060960 -0.160581 -0.000000
  0Cr  2dxz       0.000000 -0.000000 -0.000000 -0.000000  0.000000  0.000000
  0Cr  2dyz      -0.000000  0.000000 -0.000000  0.000000  0.000000 -0.000000
  0Cr  2dx2y2     0.000000  0.000000  0.000000 -0.160581  0.060960 -0.000000
  0Cr  2dxy      -0.000000  0.000000 -0.000000  0.000000 -0.000000 -0.000000
  0Cr  3pz        0.000240  0.000272 -0.012341 -0.000000  0.000000  0.000000
  0Cr  3px        0.002378  0.012111  0.000313  0.000000  0.000000  0.000000
  0Cr  3py        0.012113 -0.002383  0.000183  0.000000 -0.000000  0.000000
  0Cr  1f0       -0.000009 -0.000010  0.000463 -0.000000  0.000000  0.000000
  0Cr  1f+1       0.000055  0.000278  0.000007 -0.000000 -0.000000 -0.000000
  0Cr  1f-1       0.000278 -0.000055  0.000004  0.000000  0.000000 -0.000000
  0Cr  1f+2       0.000000  0.000000 -0.000000  0.000000 -0.000000  0.000000
  0Cr  1f-2      -0.000000 -0.000000  0.000000 -0.000000 -0.000000  0.000000
  0Cr  1f+3       0.000070  0.000359  0.000009 -0.000000  0.000000 -0.000000
  0Cr  1f-3      -0.000359  0.000071 -0.000005 -0.000000 -0.000000  0.000000
  1O   1s         0.000934  0.004757  0.000123 -0.100719  0.123440  0.113037
  1O   2s         0.001468  0.007477  0.000193 -0.215963  0.264682  0.235313
  1O   3s         0.002399  0.012217  0.000316 -0.096710  0.118527  0.134059
  1O   1pz       -0.000008 -0.000009  0.000397 -0.000000  0.000000  0.000000
  1O   1px        0.000888  0.004525  0.000117  0.100719 -0.123440 -0.114260
  1O   1py       -0.000390  0.000077 -0.000006 -0.000000 -0.000000  0.000000
  1O   2pz       -0.000050 -0.000057  0.002565  0.000000 -0.000000 -0.000000
  1O   2px        0.000924  0.004707  0.000122  0.139701 -0.171216 -0.132758
  1O   2py       -0.002518  0.000495 -0.000038 -0.000000 -0.000000 -0.000000
  1O   1dz2      -0.000143 -0.000730 -0.000019  0.016277 -0.019311 -0.019256
  1O   1dxz      -0.000009 -0.000010  0.000455  0.000000 -0.000000 -0.000000
  1O   1dyz      -0.000000  0.000000  0.000000 -0.000000  0.000000 -0.000000
  1O   1dx2y2     0.000248  0.001265  0.000033 -0.027471  0.034036  0.033353
  1O   1dxy      -0.000447  0.000088 -0.000007 -0.000000  0.000000 -0.000000
  2O   1s        -0.000934 -0.004757 -0.000123 -0.100719  0.123440  0.113037
  2O   2s        -0.001468 -0.007477 -0.000193 -0.215963  0.264682  0.235313
  2O   3s        -0.002399 -0.012217 -0.000316 -0.096710  0.118527  0.134059
  2O   1pz       -0.000008 -0.000009  0.000397 -0.000000 -0.000000  0.000000
  2O   1px        0.000888  0.004525  0.000117 -0.100719  0.123440  0.114260
  2O   1py       -0.000390  0.000077 -0.000006  0.000000 -0.000000  0.000000
  2O   2pz       -0.000050 -0.000057  0.002565  0.000000 -0.000000 -0.000000
  2O   2px        0.000924  0.004707  0.000122 -0.139701  0.171216  0.132758
  2O   2py       -0.002518  0.000495 -0.000038 -0.000000  0.000000 -0.000000
  2O   1dz2       0.000143  0.000730  0.000019  0.016277 -0.019311 -0.019256
  2O   1dxz       0.000009  0.000010 -0.000455 -0.000000  0.000000  0.000000
  2O   1dyz       0.000000 -0.000000 -0.000000 -0.000000  0.000000 -0.000000
  2O   1dx2y2    -0.000248 -0.001265 -0.000033 -0.027471  0.034036  0.033353
  2O   1dxy       0.000447 -0.000088  0.000007 -0.000000 -0.000000  0.000000
  3O   1s         0.004758 -0.000936  0.000072  0.157262  0.025505  0.113037
  3O   2s         0.007478 -0.001471  0.000113  0.337203  0.054689  0.235313
  3O   3s         0.012219 -0.002404  0.000185  0.151002  0.024490  0.134059
  3O   1pz       -0.000008 -0.000009  0.000397 -0.000000 -0.000000  0.000000
  3O   1px       -0.000077 -0.000390 -0.000010 -0.000000 -0.000000  0.000000
  3O   1py        0.004525 -0.000890  0.000068 -0.157261 -0.025505 -0.114260
  3O   2pz       -0.000050 -0.000057  0.002565  0.000000 -0.000000 -0.000000
  3O   2px       -0.000494 -0.002518 -0.000065 -0.000000 -0.000000 -0.000000
  3O   2py        0.004707 -0.000926  0.000071 -0.218128 -0.035377 -0.132758
  3O   1dz2      -0.000730  0.000144 -0.000011 -0.024991 -0.003645 -0.019256
  3O   1dxz       0.000000 -0.000000 -0.000000 -0.000000 -0.000000  0.000000
  3O   1dyz      -0.000009 -0.000010  0.000455  0.000000 -0.000000 -0.000000
  3O   1dx2y2    -0.001265  0.000249 -0.000019 -0.043137 -0.007232 -0.033353
  3O   1dxy      -0.000088 -0.000447 -0.000012 -0.000000  0.000000 -0.000000
  4O   1s        -0.004758  0.000936 -0.000072  0.157262  0.025505  0.113037
  4O   2s        -0.007478  0.001471 -0.000113  0.337203  0.054689  0.235313
  4O   3s        -0.012219  0.002404 -0.000185  0.151002  0.024490  0.134059
  4O   1pz       -0.000008 -0.000009  0.000397 -0.000000  0.000000  0.000000
  4O   1px       -0.000077 -0.000390 -0.000010  0.000000 -0.000000  0.000000
  4O   1py        0.004525 -0.000890  0.000068  0.157261  0.025505  0.114260
  4O   2pz       -0.000050 -0.000057  0.002565  0.000000 -0.000000 -0.000000
  4O   2px       -0.000494 -0.002518 -0.000065 -0.000000 -0.000000 -0.000000
  4O   2py        0.004707 -0.000926  0.000071  0.218128  0.035377  0.132758
  4O   1dz2       0.000730 -0.000144  0.000011 -0.024991 -0.003645 -0.019256
  4O   1dxz      -0.000000 -0.000000 -0.000000 -0.000000  0.000000  0.000000
  4O   1dyz       0.000009  0.000010 -0.000455 -0.000000  0.000000  0.000000
  4O   1dx2y2     0.001265 -0.000249  0.000019 -0.043137 -0.007232 -0.033353
  4O   1dxy       0.000088  0.000447  0.000012  0.000000 -0.000000  0.000000
  5O   1s        -0.000094 -0.000107  0.004848 -0.056543 -0.148945  0.113037
  5O   2s        -0.000148 -0.000168  0.007619 -0.121239 -0.319370  0.235313
  5O   3s        -0.000242 -0.000274  0.012449 -0.054292 -0.143017  0.134059
  5O   1pz        0.000090  0.000102 -0.004611 -0.056543 -0.148945  0.114260
  5O   1px       -0.000077 -0.000390 -0.000010 -0.000000  0.000000  0.000000
  5O   1py       -0.000390  0.000077 -0.000006 -0.000000 -0.000000  0.000000
  5O   2pz        0.000093  0.000106 -0.004796 -0.078427 -0.206593  0.132758
  5O   2px       -0.000494 -0.002518 -0.000065 -0.000000 -0.000000 -0.000000
  5O   2py       -0.002518  0.000495 -0.000038 -0.000000  0.000000 -0.000000
  5O   1dz2      -0.000029 -0.000033  0.001488 -0.017925 -0.047217  0.038513
  5O   1dxz       0.000088  0.000447  0.000012  0.000000 -0.000000  0.000000
  5O   1dyz       0.000447 -0.000088  0.000007 -0.000000 -0.000000  0.000000
  5O   1dx2y2    -0.000000 -0.000000 -0.000000  0.000435 -0.000165  0.000000
  5O   1dxy       0.000000  0.000000  0.000000 -0.000000 -0.000000 -0.000000
  6O   1s         0.000094  0.000107 -0.004848 -0.056543 -0.148945  0.113037
  6O   2s         0.000148  0.000168 -0.007619 -0.121239 -0.319370  0.235313
  6O   3s         0.000242  0.000274 -0.012449 -0.054292 -0.143017  0.134059
  6O   1pz        0.000090  0.000102 -0.004611  0.056543  0.148945 -0.114260
  6O   1px       -0.000077 -0.000390 -0.000010  0.000000 -0.000000  0.000000
  6O   1py       -0.000390  0.000077 -0.000006  0.000000 -0.000000  0.000000
  6O   2pz        0.000093  0.000106 -0.004796  0.078427  0.206593 -0.132758
  6O   2px       -0.000494 -0.002518 -0.000065 -0.000000 -0.000000 -0.000000
  6O   2py       -0.002518  0.000495 -0.000038 -0.000000  0.000000 -0.000000
  6O   1dz2       0.000029  0.000033 -0.001488 -0.017925 -0.047217  0.038513
  6O   1dxz      -0.000088 -0.000447 -0.000012 -0.000000 -0.000000 -0.000000
  6O   1dyz      -0.000447  0.000088 -0.000007  0.000000 -0.000000 -0.000000
  6O   1dx2y2    -0.000000 -0.000000 -0.000000  0.000435 -0.000165  0.000000
  6O   1dxy       0.000000  0.000000 -0.000000 -0.000000  0.000000 -0.000000
                     18        19        20        21        22        23   
                  -3.37224  -3.37224  -3.37224  -2.78530  -2.76457  -2.76457
                   1.00000   1.00000   1.00000   1.00000   1.00000   1.00000
                  --------  --------  --------  --------  --------  --------
  0Cr  1s        -0.000000 -0.000000  0.000000 -0.010947  0.000000 -0.000000
  0Cr  2s         0.000000 -0.000000 -0.000000  0.037606 -0.000000  0.000000
  0Cr  3s        -0.000000 -0.000000 -0.000000 -0.120284  0.000000 -0.000000
  0Cr  4s         0.000000  0.000000  0.000000 -0.056364 -0.000000  0.000000
  0Cr  5s        -0.000000 -0.000000 -0.000000  0.051872  0.000000 -0.000000
  0Cr  1pz       -0.006630  0.003312 -0.004739  0.000000 -0.000000 -0.000000
  0Cr  1px       -0.003139 -0.008117 -0.001283  0.000000  0.000000  0.000000
  0Cr  1py       -0.004855  0.000724  0.007300 -0.000000  0.000000  0.000000
  0Cr  2pz        0.019878 -0.009931  0.014208 -0.000000  0.000000  0.000000
  0Cr  2px        0.009411  0.024337  0.003845 -0.000000 -0.000000 -0.000000
  0Cr  2py        0.014558 -0.002171 -0.021886  0.000000 -0.000000 -0.000000
  0Cr  1dz2       0.000000 -0.000000 -0.000000  0.000000  0.081174 -0.055294
  0Cr  1dxz      -0.000000  0.000000  0.000000  0.000000 -0.000000 -0.000000
  0Cr  1dyz       0.000000  0.000000  0.000000 -0.000000 -0.000000 -0.000000
  0Cr  1dx2y2    -0.000000  0.000000 -0.000000 -0.000000 -0.055294 -0.081174
  0Cr  1dxy      -0.000000 -0.000000  0.000000 -0.000000 -0.000000  0.000000
  0Cr  2dz2      -0.000000  0.000000 -0.000000  0.000000 -0.068477  0.046645
  0Cr  2dxz       0.000000  0.000000 -0.000000  0.000000  0.000000 -0.000000
  0Cr  2dyz      -0.000000  0.000000 -0.000000 -0.000000  0.000000 -0.000000
  0Cr  2dx2y2     0.000000 -0.000000  0.000000 -0.000000  0.046645  0.068477
  0Cr  2dxy       0.000000  0.000000 -0.000000 -0.000000  0.000000 -0.000000
  0Cr  3pz       -0.079035  0.039487 -0.056490 -0.000000 -0.000000  0.000000
  0Cr  3px       -0.037417 -0.096763 -0.015289 -0.000000  0.000000 -0.000000
  0Cr  3py       -0.057882  0.008633  0.087018 -0.000000 -0.000000 -0.000000
  0Cr  1f0       -0.004217  0.002107 -0.003014 -0.000000  0.000000 -0.000000
  0Cr  1f+1       0.001222  0.003161  0.000499  0.000000 -0.000000 -0.000000
  0Cr  1f-1       0.001891 -0.000282 -0.002843 -0.000000 -0.000000 -0.000000
  0Cr  1f+2       0.000000  0.000000 -0.000000 -0.000000  0.000000 -0.000000
  0Cr  1f-2      -0.000000 -0.000000 -0.000000  0.000000 -0.000000 -0.000000
  0Cr  1f+3       0.001578  0.004081  0.000645  0.000000 -0.000000 -0.000000
  0Cr  1f-3      -0.002441  0.000364  0.003670  0.000000  0.000000  0.000000
  1O   1s         0.070029  0.181102  0.028615  0.064684 -0.089633 -0.043211
  1O   2s         0.146391  0.378583  0.059817  0.149027 -0.203938 -0.098315
  1O   3s         0.082448  0.213220  0.033689  0.058270 -0.101943 -0.049145
  1O   1pz       -0.001565  0.000782 -0.001118  0.000000 -0.000000 -0.000000
  1O   1px       -0.072201 -0.186721 -0.029502  0.217906 -0.281526 -0.135718
  1O   1py       -0.001146  0.000171  0.001723 -0.000000  0.000000 -0.000000
  1O   2pz        0.008640 -0.004317  0.006175  0.000000  0.000000 -0.000000
  1O   2px       -0.076298 -0.197315 -0.031176  0.190210 -0.265884 -0.128178
  1O   2py        0.006328 -0.000944 -0.009513  0.000000  0.000000  0.000000
  1O   1dz2      -0.011923 -0.030834 -0.004872  0.013178 -0.015856 -0.008363
  1O   1dxz       0.000520 -0.000260  0.000371 -0.000000 -0.000000 -0.000000
  1O   1dyz      -0.000000  0.000000  0.000000 -0.000000 -0.000000 -0.000000
  1O   1dx2y2     0.020651  0.053405  0.008438 -0.022826  0.028113  0.013137
  1O   1dxy       0.000381 -0.000057 -0.000572  0.000000 -0.000000  0.000000
  2O   1s        -0.070029 -0.181102 -0.028615  0.064684 -0.089633 -0.043211
  2O   2s        -0.146391 -0.378583 -0.059817  0.149027 -0.203938 -0.098315
  2O   3s        -0.082448 -0.213220 -0.033689  0.058270 -0.101943 -0.049145
  2O   1pz       -0.001565  0.000782 -0.001118  0.000000  0.000000 -0.000000
  2O   1px       -0.072201 -0.186721 -0.029502 -0.217906  0.281526  0.135718
  2O   1py       -0.001146  0.000171  0.001723  0.000000  0.000000  0.000000
  2O   2pz        0.008640 -0.004317  0.006175  0.000000  0.000000 -0.000000
  2O   2px       -0.076298 -0.197315 -0.031176 -0.190210  0.265884  0.128178
  2O   2py        0.006328 -0.000944 -0.009513  0.000000  0.000000  0.000000
  2O   1dz2       0.011923  0.030834  0.004872  0.013178 -0.015856 -0.008363
  2O   1dxz      -0.000520  0.000260 -0.000371  0.000000  0.000000  0.000000
  2O   1dyz      -0.000000  0.000000 -0.000000 -0.000000 -0.000000 -0.000000
  2O   1dx2y2    -0.020651 -0.053405 -0.008438 -0.022826  0.028113  0.013137
  2O   1dxy      -0.000381  0.000057  0.000572  0.000000 -0.000000  0.000000
  3O   1s         0.108331 -0.016157 -0.162861  0.064684  0.007395  0.099230
  3O   2s         0.226461 -0.033776 -0.340453  0.149027  0.016826  0.225773
  3O   3s         0.127544 -0.019023 -0.191745  0.058270  0.008411  0.112857
  3O   1pz       -0.001565  0.000782 -0.001118  0.000000  0.000000 -0.000000
  3O   1px       -0.000741 -0.001916 -0.000303 -0.000000  0.000000  0.000000
  3O   1py       -0.111693  0.016658  0.167915  0.217906  0.023227  0.311667
  3O   2pz        0.008640 -0.004317  0.006175  0.000000 -0.000000 -0.000000
  3O   2px        0.004090  0.010578  0.001671  0.000000 -0.000000  0.000000
  3O   2py       -0.118030  0.017604  0.177442  0.190210  0.021937  0.294352
  3O   1dz2      -0.018444  0.002751  0.027728  0.013178  0.001978  0.017817
  3O   1dxz       0.000000  0.000000 -0.000000  0.000000  0.000000 -0.000000
  3O   1dyz       0.000520 -0.000260  0.000371  0.000000 -0.000000  0.000000
  3O   1dx2y2    -0.031946  0.004765  0.048026  0.022826  0.001933  0.030971
  3O   1dxy       0.000246  0.000636  0.000101  0.000000  0.000000  0.000000
  4O   1s        -0.108331  0.016157  0.162861  0.064684  0.007395  0.099230
  4O   2s        -0.226461  0.033776  0.340453  0.149027  0.016826  0.225773
  4O   3s        -0.127544  0.019023  0.191745  0.058270  0.008411  0.112857
  4O   1pz       -0.001565  0.000782 -0.001118  0.000000 -0.000000 -0.000000
  4O   1px       -0.000741 -0.001916 -0.000303 -0.000000  0.000000  0.000000
  4O   1py       -0.111693  0.016658  0.167915 -0.217906 -0.023227 -0.311667
  4O   2pz        0.008640 -0.004317  0.006175  0.000000 -0.000000 -0.000000
  4O   2px        0.004090  0.010578  0.001671  0.000000 -0.000000  0.000000
  4O   2py       -0.118030  0.017604  0.177442 -0.190210 -0.021937 -0.294352
  4O   1dz2       0.018444 -0.002751 -0.027728  0.013178  0.001978  0.017817
  4O   1dxz       0.000000 -0.000000  0.000000  0.000000 -0.000000 -0.000000
  4O   1dyz      -0.000520  0.000260 -0.000371  0.000000 -0.000000 -0.000000
  4O   1dx2y2     0.031946 -0.004765 -0.048026  0.022826  0.001933  0.030971
  4O   1dxy      -0.000246 -0.000636 -0.000101 -0.000000 -0.000000 -0.000000
  5O   1s        -0.147922  0.073904 -0.105726  0.064684  0.082238 -0.056020
  5O   2s        -0.309222  0.154491 -0.221014  0.149027  0.187112 -0.127458
  5O   3s        -0.174156  0.087010 -0.124476  0.058270  0.093532 -0.063713
  5O   1pz       -0.152512  0.076197 -0.109006 -0.217906 -0.258298  0.175949
  5O   1px       -0.000741 -0.001916 -0.000303 -0.000000  0.000000  0.000000
  5O   1py       -0.001146  0.000171  0.001723 -0.000000  0.000000  0.000000
  5O   2pz       -0.161165  0.080520 -0.115191 -0.190210 -0.243948  0.166174
  5O   2px        0.004090  0.010578  0.001671  0.000000 -0.000000  0.000000
  5O   2py        0.006328 -0.000944 -0.009513  0.000000  0.000000  0.000000
  5O   1dz2      -0.050369  0.025165 -0.036001 -0.026357 -0.029612  0.020171
  5O   1dxz      -0.000246 -0.000636 -0.000101 -0.000000 -0.000000  0.000000
  5O   1dyz      -0.000381  0.000057  0.000572  0.000000 -0.000000  0.000000
  5O   1dx2y2    -0.000000  0.000000  0.000000 -0.000000 -0.000421 -0.000619
  5O   1dxy       0.000000  0.000000 -0.000000 -0.000000  0.000000  0.000000
  6O   1s         0.147922 -0.073904  0.105726  0.064684  0.082238 -0.056020
  6O   2s         0.309222 -0.154491  0.221014  0.149027  0.187112 -0.127458
  6O   3s         0.174156 -0.087010  0.124476  0.058270  0.093532 -0.063713
  6O   1pz       -0.152512  0.076197 -0.109006  0.217906  0.258298 -0.175949
  6O   1px       -0.000741 -0.001916 -0.000303 -0.000000 -0.000000  0.000000
  6O   1py       -0.001146  0.000171  0.001723  0.000000  0.000000  0.000000
  6O   2pz       -0.161165  0.080520 -0.115191  0.190210  0.243948 -0.166174
  6O   2px        0.004090  0.010578  0.001671  0.000000 -0.000000  0.000000
  6O   2py        0.006328 -0.000944 -0.009513  0.000000  0.000000  0.000000
  6O   1dz2       0.050369 -0.025165  0.036001 -0.026357 -0.029612  0.020171
  6O   1dxz       0.000246  0.000636  0.000101  0.000000  0.000000  0.000000
  6O   1dyz       0.000381 -0.000057 -0.000572 -0.000000 -0.000000  0.000000
  6O   1dx2y2     0.000000  0.000000 -0.000000 -0.000000 -0.000421 -0.000619
  6O   1dxy      -0.000000 -0.000000  0.000000 -0.000000 -0.000000  0.000000
                     24        25        26        27        28        29   
                  -2.76139  -2.76139  -2.76139  -2.62613  -2.62613  -2.62613
                   1.00000   1.00000   1.00000   1.00000   1.00000   1.00000
                  --------  --------  --------  --------  --------  --------
  0Cr  1s        -0.000000 -0.000000  0.000000  0.000000  0.000000 -0.000000
  0Cr  2s         0.000000 -0.000000 -0.000000 -0.000000 -0.000000  0.000000
  0Cr  3s        -0.000000 -0.000000  0.000000  0.000000  0.000000 -0.000000
  0Cr  4s         0.000000  0.000000 -0.000000  0.000000 -0.000000  0.000000
  0Cr  5s        -0.000000  0.000000  0.000000 -0.000000  0.000000 -0.000000
  0Cr  1pz       -0.002071  0.027147 -0.027188  0.000000 -0.000000 -0.000000
  0Cr  1px       -0.014531  0.024651  0.025721 -0.000000  0.000000 -0.000000
  0Cr  1py       -0.035567 -0.011652 -0.008925 -0.000000  0.000000 -0.000000
  0Cr  2pz        0.006187 -0.081093  0.081215 -0.000000  0.000000  0.000000
  0Cr  2px        0.043406 -0.073638 -0.076835  0.000000 -0.000000  0.000000
  0Cr  2py        0.106244  0.034807  0.026661  0.000000 -0.000000  0.000000
  0Cr  1dz2       0.000000  0.000000  0.000000  0.000000  0.000000 -0.000000
  0Cr  1dxz      -0.000000 -0.000000  0.000000 -0.028029  0.006368  0.035580
  0Cr  1dyz       0.000000  0.000000 -0.000000 -0.032030 -0.025241 -0.020715
  0Cr  1dx2y2    -0.000000 -0.000000  0.000000  0.000000  0.000000  0.000000
  0Cr  1dxy       0.000000 -0.000000 -0.000000 -0.016750  0.037610 -0.019926
  0Cr  2dz2       0.000000 -0.000000 -0.000000 -0.000000 -0.000000  0.000000
  0Cr  2dxz       0.000000 -0.000000  0.000000 -0.005707  0.001297  0.007244
  0Cr  2dyz       0.000000 -0.000000 -0.000000 -0.006522 -0.005139 -0.004218
  0Cr  2dx2y2     0.000000  0.000000 -0.000000 -0.000000  0.000000  0.000000
  0Cr  2dxy      -0.000000  0.000000  0.000000 -0.003411  0.007658 -0.004057
  0Cr  3pz        0.002567 -0.033648  0.033698  0.000000  0.000000 -0.000000
  0Cr  3px        0.018010 -0.030555 -0.031881  0.000000  0.000000 -0.000000
  0Cr  3py        0.044084  0.014442  0.011062 -0.000000  0.000000 -0.000000
  0Cr  1f0       -0.000099  0.001295 -0.001297  0.000000  0.000000 -0.000000
  0Cr  1f+1       0.000425 -0.000720 -0.000751 -0.000000 -0.000000  0.000000
  0Cr  1f-1       0.001039  0.000340  0.000261  0.000000 -0.000000 -0.000000
  0Cr  1f+2       0.000000 -0.000000 -0.000000  0.000000  0.000000  0.000000
  0Cr  1f-2      -0.000000  0.000000  0.000000 -0.000000 -0.000000 -0.000000
  0Cr  1f+3       0.000548 -0.000930 -0.000970 -0.000000 -0.000000  0.000000
  0Cr  1f-3      -0.001341 -0.000439 -0.000337 -0.000000  0.000000 -0.000000
  1O   1s         0.045174 -0.076638 -0.079964 -0.000000 -0.000000  0.000000
  1O   2s         0.104445 -0.177192 -0.184883 -0.000000 -0.000000  0.000000
  1O   3s         0.044107 -0.074828 -0.078076  0.000000  0.000000 -0.000000
  1O   1pz       -0.000889  0.011647 -0.011665  0.226262 -0.051402 -0.287214
  1O   1px        0.147699 -0.250573 -0.261450 -0.000000 -0.000000  0.000000
  1O   1py       -0.015259 -0.004999 -0.003829  0.135215 -0.303598  0.160854
  1O   2pz       -0.000927  0.012156 -0.012174  0.116507 -0.026468 -0.147893
  1O   2px        0.125954 -0.213682 -0.222958  0.000000  0.000000  0.000000
  1O   2py       -0.015926 -0.005217 -0.003996  0.069625 -0.156329  0.082827
  1O   1dz2       0.008929 -0.015149 -0.015806 -0.000000 -0.000000  0.000000
  1O   1dxz       0.000009 -0.000120  0.000121 -0.014937  0.003393  0.018960
  1O   1dyz       0.000000  0.000000  0.000000 -0.000204 -0.000161 -0.000132
  1O   1dx2y2    -0.015466  0.026238  0.027377  0.000000  0.000000 -0.000000
  1O   1dxy       0.000158  0.000052  0.000040 -0.008926  0.020042 -0.010619
  2O   1s        -0.045174  0.076638  0.079964  0.000000  0.000000 -0.000000
  2O   2s        -0.104445  0.177192  0.184883  0.000000  0.000000 -0.000000
  2O   3s        -0.044107  0.074828  0.078076 -0.000000 -0.000000  0.000000
  2O   1pz       -0.000889  0.011647 -0.011665 -0.226262  0.051402  0.287214
  2O   1px        0.147699 -0.250573 -0.261450 -0.000000 -0.000000 -0.000000
  2O   1py       -0.015259 -0.004999 -0.003829 -0.135215  0.303598 -0.160854
  2O   2pz       -0.000927  0.012156 -0.012174 -0.116507  0.026468  0.147893
  2O   2px        0.125954 -0.213682 -0.222958 -0.000000  0.000000  0.000000
  2O   2py       -0.015926 -0.005217 -0.003996 -0.069625  0.156329 -0.082827
  2O   1dz2      -0.008929  0.015149  0.015806  0.000000  0.000000  0.000000
  2O   1dxz      -0.000009  0.000120 -0.000121 -0.014937  0.003393  0.018960
  2O   1dyz       0.000000  0.000000  0.000000 -0.000204 -0.000161 -0.000132
  2O   1dx2y2     0.015466 -0.026238 -0.027377 -0.000000 -0.000000  0.000000
  2O   1dxy      -0.000158 -0.000052 -0.000040 -0.008926  0.020042 -0.010619
  3O   1s         0.110572  0.036225  0.027747  0.000000 -0.000000  0.000000
  3O   2s         0.255651  0.083754  0.064153  0.000000  0.000000  0.000000
  3O   3s         0.107961  0.035369  0.027092 -0.000000 -0.000000 -0.000000
  3O   1pz       -0.000889  0.011647 -0.011665  0.258556  0.203752  0.167221
  3O   1px       -0.006234  0.010576  0.011035  0.135215 -0.303598  0.160854
  3O   1py        0.361524  0.118439  0.090721  0.000000 -0.000000  0.000000
  3O   2pz       -0.000927  0.012156 -0.012174  0.133136  0.104916  0.086105
  3O   2px       -0.006506  0.011038  0.011517  0.069625 -0.156329  0.082827
  3O   2py        0.308299  0.101002  0.077365 -0.000000  0.000000 -0.000000
  3O   1dz2       0.021857  0.007160  0.005485  0.000000 -0.000000 -0.000000
  3O   1dxz      -0.000000  0.000000 -0.000000 -0.000179  0.000041  0.000227
  3O   1dyz       0.000009 -0.000120  0.000121 -0.017069 -0.013451 -0.011039
  3O   1dx2y2     0.037857  0.012402  0.009500  0.000000 -0.000000 -0.000000
  3O   1dxy       0.000064 -0.000109 -0.000114 -0.008926  0.020042 -0.010619
  4O   1s        -0.110572 -0.036225 -0.027747 -0.000000 -0.000000 -0.000000
  4O   2s        -0.255651 -0.083754 -0.064153 -0.000000  0.000000 -0.000000
  4O   3s        -0.107961 -0.035369 -0.027092  0.000000 -0.000000  0.000000
  4O   1pz       -0.000889  0.011647 -0.011665 -0.258556 -0.203752 -0.167221
  4O   1px       -0.006234  0.010576  0.011035 -0.135215  0.303598 -0.160854
  4O   1py        0.361524  0.118439  0.090721  0.000000  0.000000 -0.000000
  4O   2pz       -0.000927  0.012156 -0.012174 -0.133136 -0.104916 -0.086105
  4O   2px       -0.006506  0.011038  0.011517 -0.069625  0.156329 -0.082827
  4O   2py        0.308299  0.101002  0.077365 -0.000000 -0.000000 -0.000000
  4O   1dz2      -0.021857 -0.007160 -0.005485 -0.000000 -0.000000 -0.000000
  4O   1dxz      -0.000000  0.000000  0.000000 -0.000179  0.000041  0.000227
  4O   1dyz      -0.000009  0.000120 -0.000121 -0.017069 -0.013451 -0.011039
  4O   1dx2y2    -0.037857 -0.012402 -0.009500  0.000000 -0.000000  0.000000
  4O   1dxy      -0.000064  0.000109  0.000114 -0.008926  0.020042 -0.010619
  5O   1s        -0.006439  0.084396 -0.084523 -0.000000 -0.000000 -0.000000
  5O   2s        -0.014887  0.195130 -0.195423 -0.000000 -0.000000 -0.000000
  5O   3s        -0.006287  0.082403 -0.082527  0.000000  0.000000  0.000000
  5O   1pz        0.021053 -0.275940  0.276354 -0.000000  0.000000  0.000000
  5O   1px       -0.006234  0.010576  0.011035 -0.226262  0.051402  0.287214
  5O   1py       -0.015259 -0.004999 -0.003829 -0.258556 -0.203752 -0.167221
  5O   2pz        0.017953 -0.235315  0.235668 -0.000000 -0.000000 -0.000000
  5O   2px       -0.006506  0.011038  0.011517 -0.116507  0.026468  0.147893
  5O   2py       -0.015926 -0.005217 -0.003996 -0.133136 -0.104916 -0.086105
  5O   1dz2       0.002546 -0.033365  0.033415 -0.000000  0.000000  0.000000
  5O   1dxz      -0.000064  0.000109  0.000114 -0.014937  0.003393  0.018960
  5O   1dyz      -0.000158 -0.000052 -0.000040 -0.017069 -0.013451 -0.011039
  5O   1dx2y2    -0.000000 -0.000000  0.000000 -0.000000 -0.000000  0.000000
  5O   1dxy       0.000000 -0.000000 -0.000000 -0.000107  0.000240 -0.000127
  6O   1s         0.006439 -0.084396  0.084523 -0.000000 -0.000000  0.000000
  6O   2s         0.014887 -0.195130  0.195423 -0.000000 -0.000000  0.000000
  6O   3s         0.006287 -0.082403  0.082527  0.000000  0.000000 -0.000000
  6O   1pz        0.021053 -0.275940  0.276354 -0.000000 -0.000000  0.000000
  6O   1px       -0.006234  0.010576  0.011035  0.226262 -0.051402 -0.287214
  6O   1py       -0.015259 -0.004999 -0.003829  0.258556  0.203752  0.167221
  6O   2pz        0.017953 -0.235315  0.235668  0.000000  0.000000 -0.000000
  6O   2px       -0.006506  0.011038  0.011517  0.116507 -0.026468 -0.147893
  6O   2py       -0.015926 -0.005217 -0.003996  0.133136  0.104916  0.086105
  6O   1dz2      -0.002546  0.033365 -0.033415  0.000000  0.000000 -0.000000
  6O   1dxz       0.000064 -0.000109 -0.000114 -0.014937  0.003393  0.018960
  6O   1dyz       0.000158  0.000052  0.000040 -0.017069 -0.013451 -0.011039
  6O   1dx2y2    -0.000000 -0.000000  0.000000 -0.000000  0.000000  0.000000
  6O   1dxy      -0.000000 -0.000000 -0.000000 -0.000107  0.000240 -0.000127
                     30        31        32        33        34        35   
                  -2.61981  -2.61981  -2.61981  -2.61727  -2.61727  -2.61727
                   1.00000   1.00000   1.00000   1.00000   1.00000   1.00000
                  --------  --------  --------  --------  --------  --------
  0Cr  1s        -0.000000  0.000000 -0.000000  0.000000  0.000000  0.000000
  0Cr  2s         0.000000 -0.000000  0.000000 -0.000000 -0.000000 -0.000000
  0Cr  3s        -0.000000  0.000000 -0.000000  0.000000  0.000000  0.000000
  0Cr  4s         0.000000 -0.000000  0.000000 -0.000000 -0.000000 -0.000000
  0Cr  5s         0.000000 -0.000000 -0.000000  0.000000  0.000000  0.000000
  0Cr  1pz        0.004052  0.001782 -0.001270  0.000000 -0.000000  0.000000
  0Cr  1px        0.001035  0.000793  0.004417 -0.000000 -0.000000  0.000000
  0Cr  1py       -0.001928  0.004172 -0.000297 -0.000000  0.000000 -0.000000
  0Cr  2pz       -0.011463 -0.005042  0.003591 -0.000000 -0.000000 -0.000000
  0Cr  2px       -0.002928 -0.002243 -0.012494  0.000000  0.000000 -0.000000
  0Cr  2py        0.005453 -0.011801  0.000840  0.000000  0.000000  0.000000
  0Cr  1dz2       0.000000 -0.000000  0.000000 -0.000000  0.000000 -0.000000
  0Cr  1dxz      -0.000000  0.000000 -0.000000  0.000000 -0.000000  0.000000
  0Cr  1dyz       0.000000 -0.000000 -0.000000 -0.000000  0.000000  0.000000
  0Cr  1dx2y2     0.000000 -0.000000 -0.000000  0.000000 -0.000000  0.000000
  0Cr  1dxy       0.000000 -0.000000  0.000000  0.000000 -0.000000  0.000000
  0Cr  2dz2      -0.000000 -0.000000  0.000000  0.000000  0.000000 -0.000000
  0Cr  2dxz      -0.000000  0.000000 -0.000000  0.000000 -0.000000 -0.000000
  0Cr  2dyz       0.000000  0.000000 -0.000000  0.000000  0.000000 -0.000000
  0Cr  2dx2y2     0.000000 -0.000000 -0.000000 -0.000000  0.000000 -0.000000
  0Cr  2dxy       0.000000  0.000000 -0.000000  0.000000 -0.000000  0.000000
  0Cr  3pz       -0.012096 -0.005320  0.003790  0.000000  0.000000  0.000000
  0Cr  3px       -0.003090 -0.002366 -0.013185  0.000000 -0.000000  0.000000
  0Cr  3py        0.005755 -0.012453  0.000886 -0.000000 -0.000000  0.000000
  0Cr  1f0       -0.001954 -0.000859  0.000612 -0.000000  0.000000 -0.000000
  0Cr  1f+1       0.000306  0.000234  0.001304 -0.000785  0.001538 -0.000349
  0Cr  1f-1      -0.000569  0.001232 -0.000088  0.001507  0.000615 -0.000676
  0Cr  1f+2      -0.000000  0.000000  0.000000  0.000592  0.000758  0.002010
  0Cr  1f-2      -0.000000  0.000000 -0.000000  0.000000  0.000000 -0.000000
  0Cr  1f+3       0.000395  0.000302  0.001683  0.000608 -0.001192  0.000271
  0Cr  1f-3       0.000735 -0.001590  0.000113  0.001167  0.000476 -0.000524
  1O   1s         0.002604  0.001994  0.011110 -0.000000  0.000000 -0.000000
  1O   2s         0.007622  0.005837  0.032521 -0.000000  0.000000 -0.000000
  1O   3s        -0.001732 -0.001326 -0.007389  0.000000 -0.000000  0.000000
  1O   1pz        0.328933  0.144670 -0.103053  0.100283  0.128435  0.340411
  1O   1px        0.007014  0.005372  0.029929 -0.000000  0.000000 -0.000000
  1O   1py       -0.156491  0.338639 -0.024106 -0.322688 -0.131719  0.144759
  1O   2pz        0.169279  0.074451 -0.053034  0.050335  0.064466  0.170863
  1O   2px        0.003268  0.002503  0.013945  0.000000 -0.000000  0.000000
  1O   2py       -0.080535  0.174273 -0.012405 -0.161967 -0.066114  0.072659
  1O   1dz2       0.000367  0.000281  0.001566  0.000306 -0.000599  0.000136
  1O   1dxz      -0.022409 -0.009856  0.007021 -0.006852 -0.008775 -0.023258
  1O   1dyz      -0.000000  0.000000 -0.000000  0.000000  0.000000  0.000000
  1O   1dx2y2    -0.000636 -0.000487 -0.002712  0.000176 -0.000346  0.000079
  1O   1dxy       0.010661 -0.023071  0.001642  0.022047  0.009000 -0.009890
  2O   1s        -0.002604 -0.001994 -0.011110  0.000000 -0.000000  0.000000
  2O   2s        -0.007622 -0.005837 -0.032521  0.000000 -0.000000  0.000000
  2O   3s         0.001732  0.001326  0.007389  0.000000  0.000000  0.000000
  2O   1pz        0.328933  0.144670 -0.103053  0.100283  0.128435  0.340411
  2O   1px        0.007014  0.005372  0.029929 -0.000000 -0.000000 -0.000000
  2O   1py       -0.156491  0.338639 -0.024106 -0.322688 -0.131719  0.144759
  2O   2pz        0.169279  0.074451 -0.053034  0.050335  0.064466  0.170863
  2O   2px        0.003268  0.002503  0.013945 -0.000000 -0.000000 -0.000000
  2O   2py       -0.080535  0.174273 -0.012405 -0.161967 -0.066114  0.072659
  2O   1dz2      -0.000367 -0.000281 -0.001566 -0.000306  0.000599 -0.000136
  2O   1dxz       0.022409  0.009856 -0.007021  0.006852  0.008775  0.023258
  2O   1dyz      -0.000000 -0.000000 -0.000000  0.000000  0.000000 -0.000000
  2O   1dx2y2     0.000636  0.000487  0.002712 -0.000176  0.000346 -0.000079
  2O   1dxy      -0.010661  0.023071 -0.001642 -0.022047 -0.009000  0.009890
  3O   1s        -0.004849  0.010494 -0.000747 -0.000000  0.000000 -0.000000
  3O   2s        -0.014195  0.030717 -0.002187 -0.000000  0.000000 -0.000000
  3O   3s         0.003225 -0.006979  0.000497  0.000000  0.000000  0.000000
  3O   1pz        0.328933  0.144670 -0.103053 -0.100283 -0.128435 -0.340411
  3O   1px        0.084024  0.064351  0.358533  0.168072 -0.329525  0.074815
  3O   1py       -0.013063  0.028269 -0.002012 -0.000000  0.000000 -0.000000
  3O   2pz        0.169279  0.074451 -0.053034 -0.050335 -0.064466 -0.170863
  3O   2px        0.043241  0.033117  0.184511  0.084360 -0.165399  0.037552
  3O   2py       -0.006086  0.013171 -0.000938 -0.000000  0.000000  0.000000
  3O   1dz2      -0.000683  0.001479 -0.000105 -0.000587 -0.000239  0.000263
  3O   1dxz      -0.000000  0.000000 -0.000000 -0.000000  0.000000  0.000000
  3O   1dyz      -0.022409 -0.009856  0.007021  0.006852  0.008775  0.023258
  3O   1dx2y2    -0.001184  0.002561 -0.000182  0.000339  0.000138 -0.000152
  3O   1dxy      -0.005724 -0.004384 -0.024426 -0.011483  0.022514 -0.005112
  4O   1s         0.004849 -0.010494  0.000747  0.000000 -0.000000  0.000000
  4O   2s         0.014195 -0.030717  0.002187  0.000000 -0.000000 -0.000000
  4O   3s        -0.003225  0.006979 -0.000497  0.000000  0.000000  0.000000
  4O   1pz        0.328933  0.144670 -0.103053 -0.100283 -0.128435 -0.340411
  4O   1px        0.084024  0.064351  0.358533  0.168072 -0.329525  0.074815
  4O   1py       -0.013063  0.028269 -0.002012 -0.000000  0.000000 -0.000000
  4O   2pz        0.169279  0.074451 -0.053034 -0.050335 -0.064466 -0.170863
  4O   2px        0.043241  0.033117  0.184511  0.084360 -0.165399  0.037552
  4O   2py       -0.006086  0.013171 -0.000938 -0.000000 -0.000000 -0.000000
  4O   1dz2       0.000683 -0.001479  0.000105  0.000587  0.000239 -0.000263
  4O   1dxz      -0.000000  0.000000  0.000000  0.000000 -0.000000  0.000000
  4O   1dyz       0.022409  0.009856 -0.007021 -0.006852 -0.008775 -0.023258
[...]
 4 O  px              0.0       0.1       0.0       0.0       0.0       0.0
 4 O  py              0.2       0.0       0.1       0.0       0.0       0.0
 4 O  dz2             0.3       0.0       6.6      26.4       0.0       0.0
 4 O  dxz             0.0       6.1       0.0       0.0       0.0       0.0
 4 O  dyz            19.3       0.0       0.9       0.1       0.0       0.0
 4 O  dx2y2           1.2       0.0       9.5       4.7       0.0       0.0
 4 O  dxy             0.0      18.4       0.0       0.0       0.0       0.0
 5 O  dz2             0.0       0.0       3.0       0.1       0.0       0.0
 5 O  dx2y2           0.0       0.0       0.0       0.6       0.0       0.0
 6 O  s               0.0       0.0       0.2       0.0       0.0       0.0
 6 O  pz              0.0       0.0       0.1       0.0       0.0       0.0
 6 O  px              0.0       0.2       0.0       0.0       0.0       0.0
 6 O  py              0.2       0.0       0.0       0.0       0.0       0.0
 6 O  dz2             0.0       0.0       1.0       0.0       0.0       0.0
 6 O  dxz             0.0       5.4       0.0       0.0       0.0       0.0
 6 O  dyz             4.4       0.0       0.0       0.0       0.0       0.0

                     96        97        98        99       100       101   
                   2.68978   2.69125   2.69191   2.69334   2.70365   2.71977
                   0.00000   0.00000   0.00000   0.00000   0.00000   0.00000
                  --------  --------  --------  --------  --------  --------
 0 Cr s               0.0       0.0       0.0       0.0       0.2       0.0
 0 Cr pz              0.0       0.0       0.0       0.0       2.6       0.0
 0 Cr px              0.0       0.0       0.0       0.6       0.0       0.0
 0 Cr py              0.6       0.0       0.0       0.0       0.0       0.0
 0 Cr dxy             0.0       0.0       0.0       0.0       0.0       2.1
 0 Cr f0              0.0       0.0       0.0       0.0       3.5       0.0
 0 Cr f+1             0.0       0.0       0.0       0.4       0.0       0.0
 0 Cr f-1             0.4       0.0       0.0       0.0       0.0       0.0
 0 Cr f+3             0.0       0.0       0.0       0.6       0.0       0.0
 0 Cr f-3             0.6       0.0       0.0       0.0       0.0       0.0
 1 O  s               0.0       0.0       0.0       0.2       0.0       0.0
 1 O  pz              0.0       0.0       0.0       0.0       0.2       0.0
 1 O  py              0.0       0.0       0.0       0.0       0.0       0.1
 1 O  dz2             0.0       0.0       0.0       0.2       1.2       0.0
 1 O  dxz             0.0       0.0       0.0       0.3      19.3       0.0
 1 O  dyz            38.7       0.0       0.0       0.0       0.0       0.0
 1 O  dx2y2           0.0       0.0       0.0       0.4       0.0       0.0
 1 O  dxy             4.9       0.0       0.0       0.0       0.0      14.4
 2 O  s               0.0       0.0       0.0       0.2       0.0       0.0
 2 O  pz              0.0       0.0       0.0       0.0       0.2       0.0
 2 O  py              0.0       0.0       0.0       0.0       0.0       0.1
 2 O  dz2             0.0       0.0       0.0       0.2       1.2       0.0
 2 O  dxz             0.0       0.0       0.0       0.3      19.3       0.0
 2 O  dyz            38.7       0.0       0.0       0.0       0.0       0.0
 2 O  dx2y2           0.0       0.0       0.0       0.4       0.0       0.0
 2 O  dxy             4.9       0.0       0.0       0.0       0.0      14.4
 3 O  s               0.2       0.0       0.0       0.0       0.0       0.0
 3 O  pz              0.0       0.0       0.0       0.0       0.2       0.0
 3 O  px              0.0       0.0       0.0       0.0       0.0       0.2
 3 O  dz2             0.0       0.0      37.6       0.0       1.7       0.0
 3 O  dxz             0.0      49.9       0.0      38.5       0.0       0.0
 3 O  dyz             0.4       0.0       0.0       0.0      20.3       0.0
 3 O  dx2y2           0.7       0.0      12.2       0.0       0.0       0.0
 3 O  dxy             0.0       0.0       0.0       5.0       0.0      15.1
 4 O  s               0.2       0.0       0.0       0.0       0.0       0.0
 4 O  pz              0.0       0.0       0.0       0.0       0.2       0.0
 4 O  px              0.0       0.0       0.0       0.0       0.0       0.2
 4 O  dz2             0.0       0.0      37.6       0.0       1.7       0.0
 4 O  dxz             0.0      49.9       0.0      38.6       0.0       0.0
 4 O  dyz             0.4       0.0       0.0       0.0      20.3       0.0
 4 O  dx2y2           0.7       0.0      12.2       0.0       0.0       0.0
 4 O  dxy             0.0       0.0       0.0       5.0       0.0      15.1
 5 O  s               0.0       0.0       0.0       0.0       1.4       0.0
 5 O  pz              0.0       0.0       0.0       0.0       0.5       0.0
 5 O  dz2             0.0       0.0       0.0       0.0       3.7       0.0
 5 O  dxz             0.0       0.0       0.0       7.9       0.0       0.0
 5 O  dyz             7.6       0.0       0.1       0.0       0.0       0.0
 5 O  dxy             0.0       0.0       0.0       0.0       0.0      38.0
 6 O  s               0.0       0.0       0.0       0.0       0.8       0.0
 6 O  pz              0.0       0.0       0.0       0.0       0.2       0.0
 6 O  dz2             0.0       0.0       0.0       0.0       0.8       0.0
 6 O  dxz             0.0       0.0       0.0       0.9       0.0       0.0
 6 O  dyz             0.8       0.0       0.0       0.0       0.0       0.0
 6 O  dxy             0.0       0.0       0.0       0.0       0.0       0.2

                    102       103       104       105       106       107   
                   2.73630   2.75618   2.75642   2.75718   2.93690   2.97126
                   0.00000   0.00000   0.00000   0.00000   0.00000   0.00000
                  --------  --------  --------  --------  --------  --------
 0 Cr px              0.0       0.9       0.0       0.0       0.0       0.0
 0 Cr py              0.0       0.0       0.8       0.0       0.0       0.0
 0 Cr dz2             0.0       0.0       0.0       0.0      10.0       0.0
 0 Cr dxz             0.0       2.6       0.0       0.0       0.0       0.0
 0 Cr dyz             0.0       0.0       2.6       0.0       0.0       0.0
 0 Cr dx2y2           0.1       0.0       0.0       0.0       0.0      10.1
 0 Cr dxy             0.0       0.0       0.0       2.0       0.0       0.0
 0 Cr f0              0.0       0.0       0.0       0.0       1.3       0.0
 0 Cr f+1             0.0       0.4       0.0       0.0       0.0       0.0
 0 Cr f-1             0.0       0.0       0.4       0.0       0.0       0.0
 0 Cr f+3             0.0       1.2       0.0       0.0       0.0       0.0
 0 Cr f-3             0.0       0.0       1.2       0.0       0.0       0.0
 1 O  s               0.0       0.3       0.0       0.0       0.7       1.7
 1 O  pz              0.0       0.2       0.0       0.0       0.0       0.0
 1 O  px              0.0       0.1       0.0       0.0       0.4       1.2
 1 O  py              0.0       0.0       0.1       0.1       0.0       0.0
 1 O  dz2             0.0       0.1       0.0       0.0       7.2       1.9
 1 O  dxz             0.0      11.3       0.0       0.0       0.0       0.0
 1 O  dyz             0.0       0.0       4.7       0.0       0.0       0.0
 1 O  dx2y2           1.1       0.5       0.0       0.0       2.2      16.2
 1 O  dxy             0.0       0.0       3.6       8.7       0.0       0.0
 2 O  s               0.0       0.3       0.0       0.0       0.7       1.7
 2 O  pz              0.0       0.2       0.0       0.0       0.0       0.0
 2 O  px              0.0       0.1       0.0       0.0       0.4       1.2
 2 O  py              0.0       0.0       0.1       0.1       0.0       0.0
 2 O  dz2             0.0       0.1       0.0       0.0       7.2       1.9
 2 O  dxz             0.0      11.3       0.0       0.0       0.0       0.0
 2 O  dyz             0.0       0.0       4.7       0.0       0.0       0.0
 2 O  dx2y2           1.1       0.5       0.0       0.0       2.2      16.2
 2 O  dxy             0.0       0.0       3.6       8.7       0.0       0.0
 3 O  s               0.0       0.0       0.3       0.0       0.6       1.8
 3 O  pz              0.0       0.0       0.2       0.0       0.0       0.0
 3 O  px              0.0       0.1       0.0       0.1       0.0       0.0
 3 O  py              0.0       0.0       0.1       0.0       0.4       1.2
 3 O  dz2             0.0       0.0       0.1       0.0       7.2       1.9
 3 O  dxz             0.0       5.2       0.0       0.0       0.0       0.0
 3 O  dyz             0.0       0.0      11.9       0.0       0.0       0.0
 3 O  dx2y2           1.1       0.0       0.5       0.0       2.0      16.6
 3 O  dxy             0.0       3.8       0.0       9.0       0.0       0.0
 4 O  s               0.0       0.0       0.3       0.0       0.6       1.8
 4 O  pz              0.0       0.0       0.2       0.0       0.0       0.0
 4 O  px              0.0       0.1       0.0       0.1       0.0       0.0
 4 O  py              0.0       0.0       0.1       0.0       0.4       1.2
 4 O  dz2             0.0       0.0       0.1       0.0       7.2       1.9
 4 O  dxz             0.0       5.2       0.0       0.0       0.0       0.0
 4 O  dyz             0.0       0.0      11.9       0.0       0.0       0.0
 4 O  dx2y2           1.1       0.0       0.5       0.0       2.0      16.6
 4 O  dxy             0.0       3.8       0.0       9.0       0.0       0.0
 5 O  s               0.0       0.0       0.0       0.0       2.3       0.0
 5 O  pz              0.0       0.0       0.0       0.0       1.6       0.0
 5 O  px              0.0       0.5       0.0       0.0       0.0       0.0
 5 O  py              0.0       0.0       0.5       0.0       0.0       0.0
 5 O  dz2             0.0       0.0       0.0       0.0      29.7       0.0
 5 O  dxz             0.0      51.0       0.0       0.0       0.0       0.0
 5 O  dyz             0.0       0.0      51.1       0.0       0.0       0.0
 5 O  dx2y2          95.1       0.0       0.0       0.0       0.0       4.1
 5 O  dxy             0.0       0.0       0.0      61.9       0.0       0.0
 6 O  s               0.0       0.0       0.0       0.0       1.8       0.0
 6 O  pz              0.0       0.0       0.0       0.0       1.1       0.0
 6 O  dz2             0.0       0.0       0.0       0.0      10.5       0.0
 6 O  dxz             0.0       0.4       0.0       0.0       0.0       0.0
 6 O  dyz             0.0       0.0       0.4       0.0       0.0       0.0
 6 O  dx2y2           0.0       0.0       0.0       0.0       0.0       0.7
 6 O  dxy             0.0       0.0       0.0       0.1       0.0       0.0

                    108       109       110       111       112       113   
                   3.18268   3.19110   3.19733   3.19821   3.33488   3.33555
                   0.00000   0.00000   0.00000   0.00000   0.00000   0.00000
                  --------  --------  --------  --------  --------  --------
 0 Cr px              0.0       0.0       0.0       0.0       0.0       1.4
 0 Cr py              0.0       0.0       0.0       0.0       1.4       0.0
 0 Cr f+1             0.0       0.0      51.5       0.0       0.0      43.7
 0 Cr f-1             0.0       0.0       0.0      51.6      43.6       0.0
 0 Cr f+2            99.2       0.0       0.0       0.0       0.0       0.0
 0 Cr f-2             0.0     100.0       0.0       0.0       0.0       0.0
 0 Cr f+3             0.0       0.0      47.7       0.0       0.0      44.3
 0 Cr f-3             0.0       0.0       0.0      47.6      44.4       0.0
 1 O  s               0.0       0.0       0.0       0.0       0.0       1.7
 1 O  px              0.0       0.0       0.0       0.0       0.0       0.9
 1 O  dz2             0.0       0.0       0.0       0.0       0.0       0.6
 1 O  dxz             0.1       0.0       0.0       0.0       0.0       0.0
 1 O  dx2y2           0.0       0.0       0.0       0.0       0.0       1.7
 1 O  dxy             0.0       0.0       0.0       0.1       0.3       0.0
 2 O  s               0.0       0.0       0.0       0.0       0.0       1.7
 2 O  px              0.0       0.0       0.0       0.0       0.0       0.9
 2 O  dz2             0.0       0.0       0.0       0.0       0.0       0.6
 2 O  dxz             0.1       0.0       0.0       0.0       0.0       0.0
 2 O  dx2y2           0.0       0.0       0.0       0.0       0.0       1.7
 2 O  dxy             0.0       0.0       0.0       0.1       0.3       0.0
 3 O  s               0.0       0.0       0.0       0.0       1.7       0.0
 3 O  py              0.0       0.0       0.0       0.0       0.9       0.0
 3 O  dz2             0.0       0.0       0.0       0.0       0.6       0.0
 3 O  dyz             0.1       0.0       0.0       0.0       0.0       0.0
 3 O  dx2y2           0.0       0.0       0.0       0.0       1.7       0.0
 3 O  dxy             0.0       0.0       0.1       0.0       0.0       0.3
 4 O  s               0.0       0.0       0.0       0.0       1.7       0.0
 4 O  py              0.0       0.0       0.0       0.0       0.9       0.0
 4 O  dz2             0.0       0.0       0.0       0.0       0.6       0.0
 4 O  dyz             0.1       0.0       0.0       0.0       0.0       0.0
 4 O  dx2y2           0.0       0.0       0.0       0.0       1.7       0.0
 4 O  dxy             0.0       0.0       0.1       0.0       0.0       0.3
 5 O  dxz             0.0       0.0       0.2       0.0       0.0       0.3
 5 O  dyz             0.0       0.0       0.0       0.2       0.3       0.0
 6 O  dxz             0.0       0.0       0.1       0.0       0.0       0.1
 6 O  dyz             0.0       0.0       0.0       0.1       0.1       0.0

                    114   
                   3.36133
                   0.00000
                  --------
 0 Cr pz              1.4
 0 Cr f0             88.7
 1 O  dxz             0.2
 2 O  dxz             0.2
 3 O  dyz             0.2
 4 O  dyz             0.2
 5 O  s               2.0
 5 O  pz              1.0
 5 O  dz2             3.3
 6 O  s               1.1
 6 O  pz              0.6
 6 O  dz2             0.9


                      *****************************
                      * MAYER POPULATION ANALYSIS *
                      *****************************

  NA   - Mulliken gross atomic population
  ZA   - Total nuclear charge
  QA   - Mulliken gross atomic charge
  VA   - Mayer's total valence
  BVA  - Mayer's bonded valence
  FA   - Mayer's free valence

  ATOM       NA         ZA         QA         VA         BVA        FA
  0 Cr    21.7507    24.0000     2.2493     3.4401    -0.5639     4.0040
  1 O     10.0248     8.0000    -2.0248    -0.0473    -0.0474     0.0002
  2 O     10.0248     8.0000    -2.0248    -0.0473    -0.0474     0.0002
  3 O     10.0282     8.0000    -2.0282    -0.0526    -0.0527     0.0001
  4 O     10.0282     8.0000    -2.0282    -0.0526    -0.0527     0.0001
  5 O     10.0426     8.0000    -2.0426    -0.0962    -0.0964     0.0002
  6 O      9.1007     8.0000    -1.1007     0.8096    -0.1963     1.0059

  Mayer bond orders larger than 0.100000
B(  0-Cr,  5-O ) :  -0.1029 B(  0-Cr,  6-O ) :  -0.2161 

Environment variable NBOEXE for nbo6.exe or nbo5.exe not set! Skipping NBO-Analysis

-------
TIMINGS
-------

Total SCF time: 0 days 0 hours 2 min 38 sec 

Total time                  ....     158.593 sec
Sum of individual times     ....     157.386 sec  ( 99.2%)

Fock matrix formation       ....     154.804 sec  ( 97.6%)
Diagonalization             ....       0.136 sec  (  0.1%)
Density matrix formation    ....       0.230 sec  (  0.1%)
Population analysis         ....       0.389 sec  (  0.2%)
Initial guess               ....       0.199 sec  (  0.1%)
Orbital Transformation      ....       1.428 sec  (  0.9%)
Orbital Orthonormalization  ....       0.000 sec  (  0.0%)
DIIS solution               ....       0.074 sec  (  0.0%)

Maximum memory used throughout the entire SCF-calculation: 227.0 MB

-------------------------   --------------------
FINAL SINGLE POINT ENERGY     -1506.176350851180
-------------------------   --------------------


                            ***************************************
                            *     ORCA property calculations      *
                            ***************************************

                                    ---------------------
                                    Active property flags
                                    ---------------------
   (+) Dipole Moment


------------------------------------------------------------------------------
                       ORCA ELECTRIC PROPERTIES CALCULATION
------------------------------------------------------------------------------

Dipole Moment Calculation                       ... on
Quadrupole Moment Calculation                   ... off
Polarizability Calculation                      ... off
GBWName                                         ... Cr_O6_pc6.gbw
Electron density                                ... Cr_O6_pc6.scfp
SHARK General Contraction Test:  Segmented basis detected
   -> Pre-screening matrix found on disk - Trying to read with NShells=47
   -> Passing Pre-screening matrix on to SHARK ...ok
   -> Leaving CheckPreScreeningMatrix
----------------------
SHARK INTEGRAL PACKAGE
----------------------

Number of atoms                             ...      7
Number of basis functions                   ...    115
Number of shells                            ...     47
Maximum angular momentum                    ...      3
Integral batch strategy                     ... SHARK/LIBINT Hybrid
RI-J (if used) integral strategy            ... SPLIT-RIJ (Revised 2003 algorithm where possible)
Printlevel                                  ...      2
Contraction scheme used                     ... SEGMENTED contraction
Coulomb Range Separation                    ... NOT USED
Exchange Range Separation                   ... NOT USED
Finite Nucleus Model                        ... NOT USED
Auxiliary Coulomb fitting basis             ... NOT available
Auxiliary J/K fitting basis                 ... NOT available
Auxiliary Correlation fitting basis         ... NOT available
Auxiliary 'external' fitting basis          ... NOT available
Integral threshold                          ...     2.500000e-11
Primitive cut-off                           ...     2.500000e-12
Primitive pair pre-selection threshold      ...     2.500000e-12

The origin for moment calculation is the CENTER OF MASS  = ( 0.000000,  0.000000  0.000000)

-------------
DIPOLE MOMENT
-------------
                                X             Y             Z
Electronic contribution:      0.00000      -0.00000      -3.64623
Nuclear contribution   :      0.00000       0.00000       0.00000
                        -----------------------------------------
Total Dipole Moment    :      0.00000      -0.00000      -3.64623
                        -----------------------------------------
Magnitude (a.u.)       :      3.64623
Magnitude (Debye)      :      9.26798



--------------------
Rotational spectrum 
--------------------
 
Rotational constants in cm-1:     0.056523     0.056523     0.056523 
Rotational constants in MHz :  1694.525085  1694.525085  1694.525085 

 Dipole components along the rotational axes: 
x,y,z [a.u.] :     0.000002    -0.000001    -3.646232 
x,y,z [Debye]:     0.000005    -0.000002    -9.267985 

 

Timings for individual modules:

Sum of individual times         ...      159.538 sec (=   2.659 min)
GTO integral calculation        ...        0.717 sec (=   0.012 min)   0.4 %
SCF iterations                  ...      158.821 sec (=   2.647 min)  99.6 %
                             ****ORCA TERMINATED NORMALLY****
TOTAL RUN TIME: 0 days 0 hours 2 minutes 40 seconds 53 msec
