
                                 *****************
                                 * O   R   C   A *
                                 *****************

                                            #,                                       
                                            ###                                      
                                            ####                                     
                                            #####                                    
                                            ######                                   
                                           ########,                                 
                                     ,,################,,,,,                         
                               ,,#################################,,                 
                          ,,##########################################,,             
                       ,#########################################, ''#####,          
                    ,#############################################,,   '####,        
                  ,##################################################,,,,####,       
                ,###########''''           ''''###############################       
              ,#####''   ,,,,##########,,,,          '''####'''          '####       
            ,##' ,,,,###########################,,,                        '##       
           ' ,,###''''                  '''############,,,                           
         ,,##''                                '''############,,,,        ,,,,,,###''
      ,#''                                            '''#######################'''  
     '                                                          ''''####''''         
             ,#######,   #######,   ,#######,      ##                                
            ,#'     '#,  ##    ##  ,#'     '#,    #''#        ######   ,####,        
            ##       ##  ##   ,#'  ##            #'  '#       #        #'  '#        
            ##       ##  #######   ##           ,######,      #####,   #    #        
            '#,     ,#'  ##    ##  '#,     ,#' ,#      #,         ##   #,  ,#        
             '#######'   ##     ##  '#######'  #'      '#     #####' # '####'        



                  #######################################################
                  #                        -***-                        #
                  #          Department of theory and spectroscopy      #
                  #    Directorship and core code : Frank Neese         #
                  #        Max Planck Institute fuer Kohlenforschung    #
                  #                Kaiser Wilhelm Platz 1               #
                  #                 D-45470 Muelheim/Ruhr               #
                  #                      Germany                        #
                  #                                                     #
                  #                  All rights reserved                #
                  #                        -***-                        #
                  #######################################################


                         Program Version 5.0.4 -  RELEASE  -


 With contributions from (in alphabetic order):
   Daniel Aravena         : Magnetic Suceptibility
   Michael Atanasov       : Ab Initio Ligand Field Theory (pilot matlab implementation)
   Alexander A. Auer      : GIAO ZORA, VPT2 properties, NMR spectrum
   Ute Becker             : Parallelization
   Giovanni Bistoni       : ED, misc. LED, open-shell LED, HFLD
   Martin Brehm           : Molecular dynamics
   Dmytro Bykov           : SCF Hessian
   Vijay G. Chilkuri      : MRCI spin determinant printing, contributions to CSF-ICE
   Dipayan Datta          : RHF DLPNO-CCSD density
   Achintya Kumar Dutta   : EOM-CC, STEOM-CC
   Dmitry Ganyushin       : Spin-Orbit,Spin-Spin,Magnetic field MRCI
   Miquel Garcia          : C-PCM and meta-GGA Hessian, CC/C-PCM, Gaussian charge scheme
   Yang Guo               : DLPNO-NEVPT2, F12-NEVPT2, CIM, IAO-localization
   Andreas Hansen         : Spin unrestricted coupled pair/coupled cluster methods
   Benjamin Helmich-Paris : MC-RPA, TRAH-SCF, COSX integrals
   Lee Huntington         : MR-EOM, pCC
   Robert Izsak           : Overlap fitted RIJCOSX, COSX-SCS-MP3, EOM
   Marcus Kettner         : VPT2
   Christian Kollmar      : KDIIS, OOCD, Brueckner-CCSD(T), CCSD density, CASPT2, CASPT2-K
   Simone Kossmann        : Meta GGA functionals, TD-DFT gradient, OOMP2, MP2 Hessian
   Martin Krupicka        : Initial AUTO-CI
   Lucas Lang             : DCDCAS
   Marvin Lechner         : AUTO-CI (C++ implementation), FIC-MRCC
   Dagmar Lenk            : GEPOL surface, SMD
   Dimitrios Liakos       : Extrapolation schemes; Compound Job, initial MDCI parallelization
   Dimitrios Manganas     : Further ROCIS development; embedding schemes
   Dimitrios Pantazis     : SARC Basis sets
   Anastasios Papadopoulos: AUTO-CI, single reference methods and gradients
   Taras Petrenko         : DFT Hessian,TD-DFT gradient, ASA, ECA, R-Raman, ABS, FL, XAS/XES, NRVS
   Peter Pinski           : DLPNO-MP2, DLPNO-MP2 Gradient
   Christoph Reimann      : Effective Core Potentials
   Marius Retegan         : Local ZFS, SOC
   Christoph Riplinger    : Optimizer, TS searches, QM/MM, DLPNO-CCSD(T), (RO)-DLPNO pert. Triples
   Tobias Risthaus        : Range-separated hybrids, TD-DFT gradient, RPA, STAB
   Michael Roemelt        : Original ROCIS implementation
   Masaaki Saitow         : Open-shell DLPNO-CCSD energy and density
   Barbara Sandhoefer     : DKH picture change effects
   Avijit Sen             : IP-ROCIS
   Kantharuban Sivalingam : CASSCF convergence, NEVPT2, FIC-MRCI
   Bernardo de Souza      : ESD, SOC TD-DFT
   Georgi Stoychev        : AutoAux, RI-MP2 NMR, DLPNO-MP2 response
   Willem Van den Heuvel  : Paramagnetic NMR
   Boris Wezisla          : Elementary symmetry handling
   Frank Wennmohs         : Technical directorship


 We gratefully acknowledge several colleagues who have allowed us to
 interface, adapt or use parts of their codes:
   Stefan Grimme, W. Hujo, H. Kruse, P. Pracht,  : VdW corrections, initial TS optimization,
                  C. Bannwarth, S. Ehlert          DFT functionals, gCP, sTDA/sTD-DF
   Ed Valeev, F. Pavosevic, A. Kumar             : LibInt (2-el integral package), F12 methods
   Garnet Chan, S. Sharma, J. Yang, R. Olivares  : DMRG
   Ulf Ekstrom                                   : XCFun DFT Library
   Mihaly Kallay                                 : mrcc  (arbitrary order and MRCC methods)
   Jiri Pittner, Ondrej Demel                    : Mk-CCSD
   Frank Weinhold                                : gennbo (NPA and NBO analysis)
   Christopher J. Cramer and Donald G. Truhlar   : smd solvation model
   Lars Goerigk                                  : TD-DFT with DH, B97 family of functionals
   V. Asgeirsson, H. Jonsson                     : NEB implementation
   FAccTs GmbH                                   : IRC, NEB, NEB-TS, DLPNO-Multilevel, CI-OPT
                                                   MM, QMMM, 2- and 3-layer-ONIOM, Crystal-QMMM,
                                                   LR-CPCM, SF, NACMEs, symmetry and pop. for TD-DFT,
                                                   nearIR, NL-DFT gradient (VV10), updates on ESD,
                                                   ML-optimized integration grids
   S Lehtola, MJT Oliveira, MAL Marques          : LibXC Library
   Liviu Ungur et al                             : ANISO software


 Your calculation uses the libint2 library for the computation of 2-el integrals
 For citations please refer to: http://libint.valeyev.net

 Your ORCA version has been built with support for libXC version: 5.1.0
 For citations please refer to: https://tddft.org/programs/libxc/

 This ORCA versions uses:
   CBLAS   interface :  Fast vector & matrix operations
   LAPACKE interface :  Fast linear algebra routines
   SCALAPACK package :  Parallel linear algebra routines
   Shared memory     :  Shared parallel matrices
   BLAS/LAPACK       :  OpenBLAS 0.3.15  USE64BITINT DYNAMIC_ARCH NO_AFFINITY Zen SINGLE_THREADED
        Core in use  :  Zen
   Copyright (c) 2011-2014, The OpenBLAS Project


================================================================================

----- Orbital basis set information -----
Your calculation utilizes the basis: def2-SVP
   F. Weigend and R. Ahlrichs, Phys. Chem. Chem. Phys. 7, 3297 (2005).

================================================================================
                                        WARNINGS
                       Please study these warnings very carefully!
================================================================================


WARNING: CIS/ROCIS methods need fully converged wavefunctions
  ===> : Setting SCFConvForced true
         You can overwrite this default with %scf ConvForced false 


INFO   : the flag for use of the SHARK integral package has been found!

================================================================================
                                       INPUT FILE
================================================================================
NAME = Eth_opt_freq.inp
|  1> !def2-SVP TightSCF
|  2> !PAL2
|  3> %rocis
|  4>    NRoots 2
|  5>    MaxDim 5
|  6> end
|  7> 
|  8> *int 0 1
|  9>    C     0     0     0        0.00000        0.00000        0.00000
| 10>    C     1     0     0        1.33579        0.00000        0.00000
| 11>    H     1     2     0        1.08549      121.05026        0.00000
| 12>    H     1     2     3        1.08549      121.05026      180.00000
| 13>    H     2     1     3        1.08549      121.05026        0.00000
| 14>    H     2     1     3        1.08549      121.05026      180.00000
| 15> **                         ****END OF INPUT****
================================================================================

                       ****************************
                       * Single Point Calculation *
                       ****************************

---------------------------------
CARTESIAN COORDINATES (ANGSTROEM)
---------------------------------
  C      0.000000    0.000000    0.000000
  C      1.335790    0.000000    0.000000
  H     -0.559885    0.929956    0.000000
  H     -0.559885   -0.929956   -0.000000
  H      1.895675    0.929956    0.000000
  H      1.895675   -0.929956    0.000000

----------------------------
CARTESIAN COORDINATES (A.U.)
----------------------------
  NO LB      ZA    FRAG     MASS         X           Y           Z
   0 C     6.0000    0    12.011    0.000000    0.000000    0.000000
   1 C     6.0000    0    12.011    2.524277    0.000000    0.000000
   2 H     1.0000    0     1.008   -1.058029    1.757362    0.000000
   3 H     1.0000    0     1.008   -1.058029   -1.757362   -0.000000
   4 H     1.0000    0     1.008    3.582306    1.757362    0.000000
   5 H     1.0000    0     1.008    3.582306   -1.757362    0.000000

--------------------------------
INTERNAL COORDINATES (ANGSTROEM)
--------------------------------
 C      0   0   0     0.000000000000     0.00000000     0.00000000
 C      1   0   0     1.335790000000     0.00000000     0.00000000
 H      1   2   0     1.085490000000   121.05026000     0.00000000
 H      1   2   3     1.085490000000   121.05026000   180.00000000
 H      2   1   3     1.085490000000   121.05026000     0.00000000
 H      2   1   3     1.085490000000   121.05026000   180.00000000

---------------------------
INTERNAL COORDINATES (A.U.)
---------------------------
 C      0   0   0     0.000000000000     0.00000000     0.00000000
 C      1   0   0     2.524277272431     0.00000000     0.00000000
 H      1   2   0     2.051278821110   121.05026000     0.00000000
 H      1   2   3     2.051278821110   121.05026000   180.00000000
 H      2   1   3     2.051278821110   121.05026000     0.00000000
 H      2   1   3     2.051278821110   121.05026000   180.00000000

---------------------
BASIS SET INFORMATION
---------------------
There are 2 groups of distinct atoms

 Group   1 Type C   : 7s4p1d contracted to 3s2p1d pattern {511/31/1}
 Group   2 Type H   : 4s1p contracted to 2s1p pattern {31/1}

Atom   0C    basis set group =>   1
Atom   1C    basis set group =>   1
Atom   2H    basis set group =>   2
Atom   3H    basis set group =>   2
Atom   4H    basis set group =>   2
Atom   5H    basis set group =>   2


           ************************************************************
           *        Program running with 2 parallel MPI-processes     *
           *              working on a common directory               *
           ************************************************************
------------------------------------------------------------------------------
                           ORCA GTO INTEGRAL CALCULATION
------------------------------------------------------------------------------
------------------------------------------------------------------------------
                   ___                                                        
                  /   \      - P O W E R E D   B Y -                         
                 /     \                                                     
                 |  |  |   _    _      __       _____    __    __             
                 |  |  |  | |  | |    /  \     |  _  \  |  |  /  |          
                  \  \/   | |  | |   /    \    | | | |  |  | /  /          
                 / \  \   | |__| |  /  /\  \   | |_| |  |  |/  /          
                |  |  |   |  __  | /  /__\  \  |    /   |      \           
                |  |  |   | |  | | |   __   |  |    \   |  |\   \          
                \     /   | |  | | |  |  |  |  | |\  \  |  | \   \       
                 \___/    |_|  |_| |__|  |__|  |_| \__\ |__|  \__/        
                                                                              
                      - O R C A' S   B I G   F R I E N D -                    
                                      &                                       
                       - I N T E G R A L  F E E D E R -                       
                                                                              
 v1 FN, 2020, v2 2021                                                         
------------------------------------------------------------------------------


Reading SHARK input file Eth_opt_freq.SHARKINP.tmp ... ok
----------------------
SHARK INTEGRAL PACKAGE
----------------------

Number of atoms                             ...      6
Number of basis functions                   ...     48
Number of shells                            ...     24
Maximum angular momentum                    ...      2
Integral batch strategy                     ... SHARK/LIBINT Hybrid
RI-J (if used) integral strategy            ... SPLIT-RIJ (Revised 2003 algorithm where possible)
Printlevel                                  ...      1
Contraction scheme used                     ... SEGMENTED contraction
Coulomb Range Separation                    ... NOT USED
Exchange Range Separation                   ... NOT USED
Finite Nucleus Model                        ... NOT USED
Auxiliary Coulomb fitting basis             ... NOT available
Auxiliary J/K fitting basis                 ... NOT available
Auxiliary Correlation fitting basis         ... NOT available
Auxiliary 'external' fitting basis          ... NOT available
Integral threshold                          ...     2.500000e-11
Primitive cut-off                           ...     2.500000e-12
Primitive pair pre-selection threshold      ...     2.500000e-12

Calculating pre-screening integrals         ... done (  0.0 sec) Dimension = 24
Organizing shell pair data                  ... done (  0.0 sec)
Shell pair information
Total number of shell pairs                 ...       300
Shell pairs after pre-screening             ...       300
Total number of primitive shell pairs       ...      1028
Primitive shell pairs kept                  ...       935
          la=0 lb=0:    105 shell pairs
          la=1 lb=0:    112 shell pairs
          la=1 lb=1:     36 shell pairs
          la=2 lb=0:     28 shell pairs
          la=2 lb=1:     16 shell pairs
          la=2 lb=2:      3 shell pairs

Calculating one electron integrals          ... done (  0.0 sec)
Calculating Nuclear repulsion               ... done (  0.0 sec) ENN=     33.319961165285 Eh

SHARK setup successfully completed in   0.5 seconds

Maximum memory used throughout the entire GTOINT-calculation: 7.0 MB


           ************************************************************
           *        Program running with 2 parallel MPI-processes     *
           *              working on a common directory               *
           ************************************************************
-------------------------------------------------------------------------------
                                 ORCA SCF
-------------------------------------------------------------------------------

------------
SCF SETTINGS
------------
Hamiltonian:
 Ab initio Hamiltonian  Method          .... Hartree-Fock(GTOs)


General Settings:
 Integral files         IntName         .... Eth_opt_freq
 Hartree-Fock type      HFTyp           .... RHF
 Total Charge           Charge          ....    0
 Multiplicity           Mult            ....    1
 Number of Electrons    NEL             ....   16
 Basis Dimension        Dim             ....   48
 Nuclear Repulsion      ENuc            ....     33.3199611653 Eh

Convergence Acceleration:
 DIIS                   CNVDIIS         .... on
   Start iteration      DIISMaxIt       ....    12
   Startup error        DIISStart       ....  0.200000
   # of expansion vecs  DIISMaxEq       ....     5
   Bias factor          DIISBfac        ....   1.050
   Max. coefficient     DIISMaxC        ....  10.000
 Trust-Rad. Augm. Hess. CNVTRAH         .... auto
   Auto Start mean grad. ratio tolernc. ....  1.125000
   Auto Start start iteration           ....    20
   Auto Start num. interpolation iter.  ....    10
   Max. Number of Micro iterations      ....    16
   Max. Number of Macro iterations      .... Maxiter - #DIIS iter
   Number of Davidson start vectors     ....     2
   Converg. threshold I  (grad. norm)   ....   1.000e-05
   Converg. threshold II (energy diff.) ....   1.000e-08
   Grad. Scal. Fac. for Micro threshold ....   0.100
   Minimum threshold for Micro iter.    ....   0.010
   NR start threshold (gradient norm)   ....   0.001
   Initial trust radius                 ....   0.400
   Minimum AH scaling param. (alpha)    ....   1.000
   Maximum AH scaling param. (alpha)    .... 1000.000
   Orbital update algorithm             .... Taylor
   White noise on init. David. guess    .... on
   Maximum white noise                  ....   0.010
   Quad. conv. algorithm                .... NR
 SOSCF                  CNVSOSCF        .... on
   Start iteration      SOSCFMaxIt      ....   150
   Startup grad/error   SOSCFStart      ....  0.003300
 Level Shifting         CNVShift        .... on
   Level shift para.    LevelShift      ....    0.2500
   Turn off err/grad.   ShiftErr        ....    0.0010
 Zerner damping         CNVZerner       .... off
 Static damping         CNVDamp         .... on
   Fraction old density DampFac         ....    0.7000
   Max. Damping (<1)    DampMax         ....    0.9800
   Min. Damping (>=0)   DampMin         ....    0.0000
   Turn off err/grad.   DampErr         ....    0.1000
 Fernandez-Rico         CNVRico         .... off

SCF Procedure:
 Maximum # iterations   MaxIter         ....   125
 SCF integral mode      SCFMode         .... Direct
   Integral package                     .... SHARK and LIBINT hybrid scheme
 Reset frequency        DirectResetFreq ....    20
 Integral Threshold     Thresh          ....  2.500e-11 Eh
 Primitive CutOff       TCut            ....  2.500e-12 Eh

Convergence Tolerance:
 Convergence Check Mode ConvCheckMode   .... Total+1el-Energy
 Convergence forced     ConvForced      .... 1
 Energy Change          TolE            ....  1.000e-08 Eh
 1-El. energy change                    ....  1.000e-05 Eh
 Orbital Gradient       TolG            ....  1.000e-05
 Orbital Rotation angle TolX            ....  1.000e-05
 DIIS Error             TolErr          ....  5.000e-07


Diagonalization of the overlap matrix:
Smallest eigenvalue                        ... 3.989e-03
Time for diagonalization                   ...    0.026 sec
Threshold for overlap eigenvalues          ... 1.000e-08
Number of eigenvalues below threshold      ... 0
Time for construction of square roots      ...    0.013 sec
Total time needed                          ...    0.039 sec

Time for model grid setup =    0.714 sec

------------------------------
INITIAL GUESS: MODEL POTENTIAL
------------------------------
Loading Hartree-Fock densities                     ... done
Calculating cut-offs                               ... done
Initializing the effective Hamiltonian             ... done
Setting up the integral package (SHARK)            ... done
Starting the Coulomb interaction                   ... done (   0.1 sec)
Reading the grid                                   ... done
Mapping shells                                     ... done
Starting the XC term evaluation                    ... done (   0.0 sec)
Transforming the Hamiltonian                       ... done (   0.0 sec)
Diagonalizing the Hamiltonian                      ... done (   0.0 sec)
Back transforming the eigenvectors                 ... done (   0.0 sec)
Now organizing SCF variables                       ... done
                      ------------------
                      INITIAL GUESS DONE (   0.8 sec)
                      ------------------
--------------
SCF ITERATIONS
--------------
ITER       Energy         Delta-E        Max-DP      RMS-DP      [F,P]     Damp
               ***  Starting incremental Fock matrix formation  ***
  0    -77.8708014085   0.000000000000 0.04998047  0.00322271  0.1818406 0.7000
  1    -77.9080925710  -0.037291162492 0.03796042  0.00249032  0.1222092 0.7000
                               ***Turning on DIIS***
  2    -77.9311881722  -0.023095601239 0.08198588  0.00535041  0.0754763 0.0000
  3    -77.8095985783   0.121589593917 0.02303505  0.00129589  0.0233949 0.0000
  4    -77.9587633934  -0.149164815033 0.00406200  0.00026328  0.0043726 0.0000
                      *** Initiating the SOSCF procedure ***
                           *** Shutting down DIIS ***
                      *** Re-Reading the Fockian *** 
                      *** Removing any level shift *** 
ITER      Energy       Delta-E        Grad      Rot      Max-DP    RMS-DP
  5    -77.97463534  -0.0158719488  0.001315  0.001315  0.000852  0.000094
               *** Restarting incremental Fock matrix formation ***
  6    -77.97760438  -0.0029690351  0.000339  0.000294  0.000271  0.000035
  7    -77.97760494  -0.0000005592  0.000084  0.000128  0.000143  0.000016
  8    -77.97760500  -0.0000000643  0.000015  0.000012  0.000022  0.000002
  9    -77.97760500  -0.0000000015  0.000003  0.000003  0.000003  0.000000
                 **** Energy Check signals convergence ****
              ***Rediagonalizing the Fockian in SOSCF/NRSCF***

               *****************************************************
               *                     SUCCESS                       *
               *           SCF CONVERGED AFTER  10 CYCLES          *
               *****************************************************


----------------
TOTAL SCF ENERGY
----------------

Total Energy       :          -77.97760500 Eh           -2121.87851 eV

Components:
Nuclear Repulsion  :           33.31996117 Eh             906.68224 eV
Electronic Energy  :         -111.29756617 Eh           -3028.56074 eV
One Electron Energy:         -169.82567393 Eh           -4621.19152 eV
Two Electron Energy:           58.52810776 Eh            1592.63078 eV

Virial components:
Potential Energy   :         -155.44252013 Eh           -4229.80601 eV
Kinetic Energy     :           77.46491513 Eh            2107.92751 eV
Virial Ratio       :            2.00661835


---------------
SCF CONVERGENCE
---------------

  Last Energy change         ...    4.0131e-11  Tolerance :   1.0000e-08
  Last MAX-Density change    ...    6.9403e-07  Tolerance :   1.0000e-07
  Last RMS-Density change    ...    7.7142e-08  Tolerance :   5.0000e-09
  Last Orbital Gradient      ...    5.1537e-07  Tolerance :   1.0000e-05
  Last Orbital Rotation      ...    7.3391e-07  Tolerance :   1.0000e-05

             **** THE GBW FILE WAS UPDATED (Eth_opt_freq.gbw) ****
             **** DENSITY Eth_opt_freq.scfp WAS UPDATED ****
             **** ENERGY FILE WAS UPDATED (Eth_opt_freq.en.tmp) ****
             **** THE GBW FILE WAS UPDATED (Eth_opt_freq.gbw) ****
             **** DENSITY Eth_opt_freq.scfp WAS UPDATED ****
----------------
ORBITAL ENERGIES
----------------

  NO   OCC          E(Eh)            E(eV) 
   0   2.0000     -11.236712      -305.7665 
   1   2.0000     -11.235125      -305.7233 
   2   2.0000      -1.020616       -27.7724 
   3   2.0000      -0.781313       -21.2606 
   4   2.0000      -0.642703       -17.4888 
   5   2.0000      -0.585101       -15.9214 
   6   2.0000      -0.506973       -13.7954 
   7   2.0000      -0.376185       -10.2365 
   8   0.0000       0.164546         4.4775 
   9   0.0000       0.205032         5.5792 
  10   0.0000       0.231706         6.3050 
  11   0.0000       0.241066         6.5597 
  12   0.0000       0.303306         8.2534 
  13   0.0000       0.482100        13.1186 
  14   0.0000       0.568249        15.4628 
  15   0.0000       0.611242        16.6327 
  16   0.0000       0.623179        16.9576 
  17   0.0000       0.704479        19.1699 
  18   0.0000       0.749081        20.3835 
  19   0.0000       0.816785        22.2258 
  20   0.0000       0.885561        24.0973 
  21   0.0000       0.888352        24.1733 
  22   0.0000       0.907957        24.7068 
  23   0.0000       0.946246        25.7487 
  24   0.0000       1.082832        29.4653 
  25   0.0000       1.286486        35.0071 
  26   0.0000       1.422266        38.7018 
  27   0.0000       1.490895        40.5693 
  28   0.0000       1.532204        41.6934 
  29   0.0000       1.831329        49.8330 
  30   0.0000       1.893586        51.5271 
  31   0.0000       1.903418        51.7946 
  32   0.0000       1.975388        53.7530 
  33   0.0000       2.025561        55.1183 
  34   0.0000       2.070065        56.3293 
  35   0.0000       2.113854        57.5209 
  36   0.0000       2.207653        60.0733 
  37   0.0000       2.377311        64.6899 
  38   0.0000       2.468471        67.1705 
  39   0.0000       2.575160        70.0737 
  40   0.0000       2.692882        73.2771 
  41   0.0000       2.710760        73.7635 
  42   0.0000       2.800211        76.1976 
  43   0.0000       3.055099        83.1335 
  44   0.0000       3.145467        85.5925 
  45   0.0000       3.158304        85.9418 
  46   0.0000       3.442747        93.6819 
  47   0.0000       3.686081       100.3034 

                    ********************************
                    * MULLIKEN POPULATION ANALYSIS *
                    ********************************

-----------------------
MULLIKEN ATOMIC CHARGES
-----------------------
   0 C :   -0.117842
   1 C :   -0.117842
   2 H :    0.058921
   3 H :    0.058921
   4 H :    0.058921
   5 H :    0.058921
Sum of atomic charges:   -0.0000000

--------------------------------
MULLIKEN REDUCED ORBITAL CHARGES
--------------------------------
  0 C s       :     3.133103  s :     3.133103
      pz      :     0.983846  p :     2.948602
      px      :     0.980261
      py      :     0.984495
      dz2     :     0.002647  d :     0.036137
      dxz     :     0.008355
      dyz     :     0.000000
      dx2y2   :     0.010695
      dxy     :     0.014439
  1 C s       :     3.133103  s :     3.133103
      pz      :     0.983846  p :     2.948602
      px      :     0.980261
      py      :     0.984495
      dz2     :     0.002647  d :     0.036137
      dxz     :     0.008355
      dyz     :     0.000000
      dx2y2   :     0.010695
      dxy     :     0.014439
  2 H s       :     0.915125  s :     0.915125
      pz      :     0.003899  p :     0.025954
      px      :     0.007015
      py      :     0.015040
  3 H s       :     0.915125  s :     0.915125
      pz      :     0.003899  p :     0.025954
      px      :     0.007015
      py      :     0.015040
  4 H s       :     0.915125  s :     0.915125
      pz      :     0.003899  p :     0.025954
      px      :     0.007015
      py      :     0.015040
  5 H s       :     0.915125  s :     0.915125
      pz      :     0.003899  p :     0.025954
      px      :     0.007015
      py      :     0.015040


                     *******************************
                     * LOEWDIN POPULATION ANALYSIS *
                     *******************************

----------------------
LOEWDIN ATOMIC CHARGES
----------------------
   0 C :   -0.044172
   1 C :   -0.044172
   2 H :    0.022086
   3 H :    0.022086
   4 H :    0.022086
   5 H :    0.022086

-------------------------------
LOEWDIN REDUCED ORBITAL CHARGES
-------------------------------
  0 C s       :     2.882480  s :     2.882480
      pz      :     0.959280  p :     3.083050
      px      :     1.081209
      py      :     1.042561
      dz2     :     0.005417  d :     0.078642
      dxz     :     0.013171
      dyz     :     0.000000
      dx2y2   :     0.024944
      dxy     :     0.035110
  1 C s       :     2.882480  s :     2.882480
      pz      :     0.959280  p :     3.083050
      px      :     1.081209
      py      :     1.042561
      dz2     :     0.005417  d :     0.078642
      dxz     :     0.013171
      dyz     :     0.000000
      dx2y2   :     0.024944
      dxy     :     0.035110
  2 H s       :     0.909448  s :     0.909448
      pz      :     0.013774  p :     0.068466
      px      :     0.018299
      py      :     0.036392
  3 H s       :     0.909448  s :     0.909448
      pz      :     0.013774  p :     0.068466
      px      :     0.018299
      py      :     0.036392
  4 H s       :     0.909448  s :     0.909448
      pz      :     0.013774  p :     0.068466
      px      :     0.018299
      py      :     0.036392
  5 H s       :     0.909448  s :     0.909448
      pz      :     0.013774  p :     0.068466
      px      :     0.018299
      py      :     0.036392


                      *****************************
                      * MAYER POPULATION ANALYSIS *
                      *****************************

  NA   - Mulliken gross atomic population
  ZA   - Total nuclear charge
  QA   - Mulliken gross atomic charge
  VA   - Mayer's total valence
  BVA  - Mayer's bonded valence
  FA   - Mayer's free valence

  ATOM       NA         ZA         QA         VA         BVA        FA
  0 C      6.1178     6.0000    -0.1178     3.9849     3.9849    -0.0000
  1 C      6.1178     6.0000    -0.1178     3.9849     3.9849    -0.0000
  2 H      0.9411     1.0000     0.0589     0.9761     0.9761    -0.0000
  3 H      0.9411     1.0000     0.0589     0.9761     0.9761     0.0000
  4 H      0.9411     1.0000     0.0589     0.9761     0.9761     0.0000
  5 H      0.9411     1.0000     0.0589     0.9761     0.9761     0.0000

  Mayer bond orders larger than 0.100000
B(  0-C ,  1-C ) :   2.0264 B(  0-C ,  2-H ) :   0.9799 B(  0-C ,  3-H ) :   0.9799 
B(  1-C ,  4-H ) :   0.9799 B(  1-C ,  5-H ) :   0.9799 

-------
TIMINGS
-------

Total SCF time: 0 days 0 hours 0 min 2 sec 

Total time                  ....       2.244 sec
Sum of individual times     ....       1.855 sec  ( 82.7%)

Fock matrix formation       ....       1.004 sec  ( 44.8%)
Diagonalization             ....       0.009 sec  (  0.4%)
Density matrix formation    ....       0.001 sec  (  0.0%)
Population analysis         ....       0.004 sec  (  0.2%)
Initial guess               ....       0.106 sec  (  4.7%)
Orbital Transformation      ....       0.000 sec  (  0.0%)
Orbital Orthonormalization  ....       0.000 sec  (  0.0%)
DIIS solution               ....       0.009 sec  (  0.4%)
SOSCF solution              ....       0.008 sec  (  0.4%)

Maximum memory used throughout the entire SCF-calculation: 224.4 MB


           ************************************************************
           *        Program running with 2 parallel MPI-processes     *
           *              working on a common directory               *
           ************************************************************
--------------------------------------------------------------------------------
                          ORCA ROCIS CALCULATION
--------------------------------------------------------------------------------


Making the Fock densities.....Done!

Entering the Fock Matrix building section....
---------------------------------------------
OPEN-SHELL RESTRICTED HIGH-SPIN FOCK OPERATOR
---------------------------------------------

Warning (ORCA_ROCIS): The one-electron matrix doesn't exist - is recalculated
<ss|ss>:         5565 b            1 skpd (  0.0%)    0.003 s ( 0.001 ms/b)
<ss|sp>:        11760 b            0 skpd (  0.0%)    0.006 s ( 0.001 ms/b)
<ss|sd>:         2940 b            0 skpd (  0.0%)    0.024 s ( 0.008 ms/b)
<ss|pp>:         3780 b            2 skpd (  0.1%)    0.003 s ( 0.001 ms/b)
<ss|pd>:         1680 b            0 skpd (  0.0%)    0.012 s ( 0.007 ms/b)
<ss|dd>:          315 b            0 skpd (  0.0%)    0.001 s ( 0.002 ms/b)
<sp|sp>:         6328 b            0 skpd (  0.0%)    0.006 s ( 0.001 ms/b)
<sp|sd>:         3136 b            0 skpd (  0.0%)    0.003 s ( 0.001 ms/b)
<sp|pp>:         4032 b           12 skpd (  0.3%)    0.005 s ( 0.001 ms/b)
<sp|pd>:         1792 b            0 skpd (  0.0%)    0.003 s ( 0.001 ms/b)
<sp|dd>:          336 b            0 skpd (  0.0%)    0.001 s ( 0.003 ms/b)
<sd|sd>:          406 b            0 skpd (  0.0%)    0.001 s ( 0.002 ms/b)
<sd|pp>:         1008 b            0 skpd (  0.0%)    0.004 s ( 0.004 ms/b)
<sd|pd>:          448 b            0 skpd (  0.0%)    0.001 s ( 0.003 ms/b)
<sd|dd>:           84 b            0 skpd (  0.0%)    0.001 s ( 0.006 ms/b)
<pp|pp>:          666 b            3 skpd (  0.5%)    0.002 s ( 0.002 ms/b)
<pp|pd>:          576 b            0 skpd (  0.0%)    0.002 s ( 0.003 ms/b)
<pp|dd>:          108 b            0 skpd (  0.0%)    0.001 s ( 0.007 ms/b)
<pd|pd>:          136 b            0 skpd (  0.0%)    0.001 s ( 0.008 ms/b)
<pd|dd>:           48 b            0 skpd (  0.0%)    0.001 s ( 0.017 ms/b)
<dd|dd>:            6 b            0 skpd (  0.0%)    0.000 s ( 0.032 ms/b)

------------------------------
PARTIAL COULOMB TRANSFORMATION
------------------------------

Transformation type                        ... one-operator
Dimension of the basis                     ...   48
Number of internal MOs                     ...    6 (2-7)
Pair cutoff                                ... 2.500e-11 Eh
Number of AO pairs included in the trafo   ... 1176
Total Number of distinct AO pairs          ... 1176
Memory devoted for trafo                   ... 2000.0 MB 
Max. Number of MO pairs treated together   ... 222911      
Max. Number of MOs treated per batch       ... 4643      
Number Format for Storage                  ... Double (8 Byte)
AO-integral source                         ... DIRECT
Integral package used                      ... LIBINT

Starting integral evaluation:
<ss|**>:        31475 b       25 skpd     0.016 s (  0.001 ms/b)
<sp|**>: <sd|**>:        33560 b       40 skpd     0.032 s (  0.001 ms/b)
        8400 b        0 skpd     0.009 s (  0.001 ms/b)
<pp|**>:        10770 b       30 skpd     0.013 s (  0.001 ms/b)
<pd|**>:         4800 b        0 skpd     0.008 s (  0.002 ms/b)
<dd|**>:          900 b        0 skpd     0.003 s (  0.003 ms/b)
Closing buffer AOJ ( 0.00 GB; CompressionRatio= 1.11)
Collecting buffer AOJ 
    ... done with AO integral generation
Number of MO pairs included in the trafo   ...   21
    ... Now sorting integrals
IBATCH = 1 of  1
Closing buffer JAO ( 0.00 GB; CompressionRatio= 1.00)
Collecting buffer JAO 
TOTAL TIME for half transformation         ...     0.116 sec
AO-integral generation                     ...     0.067 sec
Half transformation                        ...     0.014 sec
J-integral sorting                         ...     0.004 sec

-------------------------------
PARTIAL EXCHANGE TRANSFORMATION
-------------------------------

Transformation type                        ... one-operator
Generation of integrals (i,mue|j,nue)      ... ON
Generation of integrals (mue,kappa|nue,tau)... OFF
Generation of integrals (i,mue|a,nue)      ... OFF
Dimension of the basis                     ...   48
Number of internal MOs                     ...    6 (   2-   7)
Pair cutoff                                ... 2.500e-11 Eh
Number of AO pairs in the trafo            ... 1176
Total Number of distinct AO pairs          ... 1176
Memory devoted for trafo                   ... 2000.0 MB 
Max. Number of MO pairs treated together   ... 113777      
Number Format for Storage                  ... Double (8 Byte)
Integral package used                      ... LIBINT

Starting integral evaluation:
    ... done with AO integral generation
Closing buffer AOK     ( 0.00 GB; CompressionRatio= 1.32)
Collecting buffer AOK 
Number of MO pairs included in the trafo   ...   21
------------------------
SORTING OF (i,mue|j,nue)
------------------------

IBATCH = 1 of  1
Closing buffer KAO     ( 0.00 GB; CompressionRatio= 1.00)
Collecting buffer KAO 
N(AO-Batches) Done                         ...     82864 
N(AO-Batches) Skipped                      ...        80 
N(IJ)-pairs Skipped                        ...         0 
TOTAL TIME for half transformation         ...     0.163 sec
AO-integral generation                     ...     0.108 sec
Half transformation                        ...     0.011 sec
K-integral sorting                         ...     0.004 sec

Integral Transformation Done!
Done!
The corrected E0:     -77.97760500

....Fock Matrices have successfully been built!


-----------------------
CALCULATION PREPARATION
-----------------------

Setting data                          ...Done!
Reading Input file                    ...Done!
Passing the integral buffers          ...Done!
Passing the Fock matrices             ...Done!

NGuessMat is larger than DIM(CI)......Resetting NGuessMat to 241


Entering Solve()
   ... Initialized Buffers
------------------------
DAVIDSON-DIAGONALIZATION
------------------------

Dimension of the eigenvalue problem            ...    241
Number of roots to be determined               ...      2
Maximum size of the expansion space            ...     10
Maximum number of iterations                   ...    100
Convergence tolerance for the residual         ...    1.000e-06
Convergence tolerance for the energies         ...    1.000e-06
Orthogonality tolerance                        ...    1.000e-14
Level Shift                                    ...    0.000e+00
Constructing the preconditioner                ... o.k.
Building the initial guess                     ... o.k.
Calculating Preconditioner                     ... o.k.
Evaluating a part of the CI matrix             ... o.k.
Diagonalizing the Guess matrix                 ... o.k.
Number of trial vectors determined             ...     10


                       ****Iteration    0****

Building the sigma vectors                     ... o.k.
Building the Hamiltonian                       ... o.k.
Diagonalizing the Hamiltonian                  ... o.k.
   Size of expansion space: 6
   lowest eigenvalues of A:
    E[ 0] =   -77.9776050015 (change= -77.9776050015)
    E[ 1] =   -77.6683897932 (change= -77.6683897932)  8.414 eV
   Maximum residual norm  :     0.000000000000

      *** CONVERGENCE OF RESIDUAL NORM REACHED ***

Storing the converged CI vectors               ... Eth_opt_freq.Davidson.ci.tmp

                 *** DAVIDSON DONE ***



Eigenvectors of ROCIS calculation:
the threshold for printing is: 1e-02

  i->a            single excitation from orbital i to a
  i->t->a         single excitation from orbital i to a with a spin flip in orbital t
  i->t ; w->a     double excitation from orbital i to t and orbital w to a

STATE   0   Exc. Energy:   0.000mEh   0.000eV           0.0cm**-1
        0                  :   1.0000  (-1.000000)

STATE   1   Exc. Energy: 309.215mEh   8.414eV       67864.9cm**-1
       5->13                :   0.0131   (0.114415)
       7->8                 :   0.9371   (0.968052)

Calculating transition densities   ...Done

-------------------
Excitation energies
-------------------


--------------------------------------------------------------------------------
    ROOT    Mult      Excitation energy[Eh]           [cm-1]          [eV]
--------------------------------------------------------------------------------
     0       1            0.00000000                      0.00          0.000
     1       1            0.30921521                  67864.89          8.414

------------------------
ROCIS-EXCITATION SPECTRA
------------------------

NOTE: At this point no SOC is included!!!
Hence only transitions to states with the same spin multiplicity
as the ground state are observed!!!

Center of mass = (  1.2621,  0.0000,  0.0000)
Calculating the Dipole integrals                  ... done
Transforming integrals                            ... done
Calculating the Linear Momentum integrals         ... done
Transforming integrals                            ... done

-----------------------------------------------------------------------------
         ABSORPTION SPECTRUM VIA TRANSITION ELECTRIC DIPOLE MOMENTS
-----------------------------------------------------------------------------
State   Energy    Wavelength  fosc       T2         TX        TY        TZ  
        (cm-1)      (nm)               (au**2)     (au)      (au)      (au) 
-----------------------------------------------------------------------------
   1   67864.9    147.4   0.633734613   3.07424   1.75335   0.00000  -0.00000

-----------------------------------------------------------------------------
         ABSORPTION SPECTRUM VIA TRANSITION VELOCITY DIPOLE MOMENTS
-----------------------------------------------------------------------------
State   Energy    Wavelength   fosc      P2         PX        PY        PZ  
        (cm-1)       (nm)              (au**2)     (au)      (au)      (au) 
-----------------------------------------------------------------------------
   1   67864.9    147.4   0.160966407   0.07466  -0.27324  -0.00000   0.00000



Timings within the ROCIS calculation:
          calculation preparation:        0.177 Sec.  ( 15.6%)
          integral transformation:        0.286 Sec.  ( 25.3%)
          fock matrix formation:          0.308 Sec.  ( 27.3%)
          ROCIS calculation:              0.358 Sec.  ( 31.7%)
          density formation/plotting:     0.001 Sec.  (  0.1%)
          TOTAL ROCIS TIME:               1.129 Sec.  (100.0%)



Maximum memory used throughout the entire ROCIS-calculation: 90.8 MB

-------------------------   --------------------
FINAL SINGLE POINT ENERGY       -77.977605001549
-------------------------   --------------------


                            ***************************************
                            *     ORCA property calculations      *
                            ***************************************

                                    ---------------------
                                    Active property flags
                                    ---------------------
   (+) Dipole Moment


------------------------------------------------------------------------------
                       ORCA ELECTRIC PROPERTIES CALCULATION
------------------------------------------------------------------------------

Dipole Moment Calculation                       ... on
Quadrupole Moment Calculation                   ... off
Polarizability Calculation                      ... off
GBWName                                         ... Eth_opt_freq.gbw
Electron density                                ... Eth_opt_freq.scfp
The origin for moment calculation is the CENTER OF MASS  = ( 1.262139,  0.000000  0.000000)

-------------
DIPOLE MOMENT
-------------
                                X             Y             Z
Electronic contribution:     -0.00000       0.00000      -0.00000
Nuclear contribution   :     -0.00000       0.00000       0.00000
                        -----------------------------------------
Total Dipole Moment    :     -0.00000       0.00000      -0.00000
                        -----------------------------------------
Magnitude (a.u.)       :      0.00000
Magnitude (Debye)      :      0.00000



--------------------
Rotational spectrum 
--------------------
 
Rotational constants in cm-1:     4.834503     1.003800     0.831213 
Rotational constants in MHz : 144934.742784 30093.158438 24919.136591 

 Dipole components along the rotational axes: 
x,y,z [a.u.] :    -0.000000     0.000000    -0.000000 
x,y,z [Debye]:    -0.000000     0.000000    -0.000000 

 

Timings for individual modules:

Sum of individual times         ...       17.553 sec (=   0.293 min)
GTO integral calculation        ...       12.122 sec (=   0.202 min)  69.1 %
SCF iterations                  ...        3.179 sec (=   0.053 min)  18.1 %
                             ****ORCA TERMINATED NORMALLY****
TOTAL RUN TIME: 0 days 0 hours 0 minutes 18 seconds 815 msec
