
                                 *****************
                                 * O   R   C   A *
                                 *****************

                                            #,                                       
                                            ###                                      
                                            ####                                     
                                            #####                                    
                                            ######                                   
                                           ########,                                 
                                     ,,################,,,,,                         
                               ,,#################################,,                 
                          ,,##########################################,,             
                       ,#########################################, ''#####,          
                    ,#############################################,,   '####,        
                  ,##################################################,,,,####,       
                ,###########''''           ''''###############################       
              ,#####''   ,,,,##########,,,,          '''####'''          '####       
            ,##' ,,,,###########################,,,                        '##       
           ' ,,###''''                  '''############,,,                           
         ,,##''                                '''############,,,,        ,,,,,,###''
      ,#''                                            '''#######################'''  
     '                                                          ''''####''''         
             ,#######,   #######,   ,#######,      ##                                
            ,#'     '#,  ##    ##  ,#'     '#,    #''#        ######   ,####,        
            ##       ##  ##   ,#'  ##            #'  '#       #        #'  '#        
            ##       ##  #######   ##           ,######,      #####,   #    #        
            '#,     ,#'  ##    ##  '#,     ,#' ,#      #,         ##   #,  ,#        
             '#######'   ##     ##  '#######'  #'      '#     #####' # '####'        



                  #######################################################
                  #                        -***-                        #
                  #          Department of theory and spectroscopy      #
                  #    Directorship and core code : Frank Neese         #
                  #        Max Planck Institute fuer Kohlenforschung    #
                  #                Kaiser Wilhelm Platz 1               #
                  #                 D-45470 Muelheim/Ruhr               #
                  #                      Germany                        #
                  #                                                     #
                  #                  All rights reserved                #
                  #                        -***-                        #
                  #######################################################


                         Program Version 5.0.4 -  RELEASE  -


 With contributions from (in alphabetic order):
   Daniel Aravena         : Magnetic Suceptibility
   Michael Atanasov       : Ab Initio Ligand Field Theory (pilot matlab implementation)
   Alexander A. Auer      : GIAO ZORA, VPT2 properties, NMR spectrum
   Ute Becker             : Parallelization
   Giovanni Bistoni       : ED, misc. LED, open-shell LED, HFLD
   Martin Brehm           : Molecular dynamics
   Dmytro Bykov           : SCF Hessian
   Vijay G. Chilkuri      : MRCI spin determinant printing, contributions to CSF-ICE
   Dipayan Datta          : RHF DLPNO-CCSD density
   Achintya Kumar Dutta   : EOM-CC, STEOM-CC
   Dmitry Ganyushin       : Spin-Orbit,Spin-Spin,Magnetic field MRCI
   Miquel Garcia          : C-PCM and meta-GGA Hessian, CC/C-PCM, Gaussian charge scheme
   Yang Guo               : DLPNO-NEVPT2, F12-NEVPT2, CIM, IAO-localization
   Andreas Hansen         : Spin unrestricted coupled pair/coupled cluster methods
   Benjamin Helmich-Paris : MC-RPA, TRAH-SCF, COSX integrals
   Lee Huntington         : MR-EOM, pCC
   Robert Izsak           : Overlap fitted RIJCOSX, COSX-SCS-MP3, EOM
   Marcus Kettner         : VPT2
   Christian Kollmar      : KDIIS, OOCD, Brueckner-CCSD(T), CCSD density, CASPT2, CASPT2-K
   Simone Kossmann        : Meta GGA functionals, TD-DFT gradient, OOMP2, MP2 Hessian
   Martin Krupicka        : Initial AUTO-CI
   Lucas Lang             : DCDCAS
   Marvin Lechner         : AUTO-CI (C++ implementation), FIC-MRCC
   Dagmar Lenk            : GEPOL surface, SMD
   Dimitrios Liakos       : Extrapolation schemes; Compound Job, initial MDCI parallelization
   Dimitrios Manganas     : Further ROCIS development; embedding schemes
   Dimitrios Pantazis     : SARC Basis sets
   Anastasios Papadopoulos: AUTO-CI, single reference methods and gradients
   Taras Petrenko         : DFT Hessian,TD-DFT gradient, ASA, ECA, R-Raman, ABS, FL, XAS/XES, NRVS
   Peter Pinski           : DLPNO-MP2, DLPNO-MP2 Gradient
   Christoph Reimann      : Effective Core Potentials
   Marius Retegan         : Local ZFS, SOC
   Christoph Riplinger    : Optimizer, TS searches, QM/MM, DLPNO-CCSD(T), (RO)-DLPNO pert. Triples
   Tobias Risthaus        : Range-separated hybrids, TD-DFT gradient, RPA, STAB
   Michael Roemelt        : Original ROCIS implementation
   Masaaki Saitow         : Open-shell DLPNO-CCSD energy and density
   Barbara Sandhoefer     : DKH picture change effects
   Avijit Sen             : IP-ROCIS
   Kantharuban Sivalingam : CASSCF convergence, NEVPT2, FIC-MRCI
   Bernardo de Souza      : ESD, SOC TD-DFT
   Georgi Stoychev        : AutoAux, RI-MP2 NMR, DLPNO-MP2 response
   Willem Van den Heuvel  : Paramagnetic NMR
   Boris Wezisla          : Elementary symmetry handling
   Frank Wennmohs         : Technical directorship


 We gratefully acknowledge several colleagues who have allowed us to
 interface, adapt or use parts of their codes:
   Stefan Grimme, W. Hujo, H. Kruse, P. Pracht,  : VdW corrections, initial TS optimization,
                  C. Bannwarth, S. Ehlert          DFT functionals, gCP, sTDA/sTD-DF
   Ed Valeev, F. Pavosevic, A. Kumar             : LibInt (2-el integral package), F12 methods
   Garnet Chan, S. Sharma, J. Yang, R. Olivares  : DMRG
   Ulf Ekstrom                                   : XCFun DFT Library
   Mihaly Kallay                                 : mrcc  (arbitrary order and MRCC methods)
   Jiri Pittner, Ondrej Demel                    : Mk-CCSD
   Frank Weinhold                                : gennbo (NPA and NBO analysis)
   Christopher J. Cramer and Donald G. Truhlar   : smd solvation model
   Lars Goerigk                                  : TD-DFT with DH, B97 family of functionals
   V. Asgeirsson, H. Jonsson                     : NEB implementation
   FAccTs GmbH                                   : IRC, NEB, NEB-TS, DLPNO-Multilevel, CI-OPT
                                                   MM, QMMM, 2- and 3-layer-ONIOM, Crystal-QMMM,
                                                   LR-CPCM, SF, NACMEs, symmetry and pop. for TD-DFT,
                                                   nearIR, NL-DFT gradient (VV10), updates on ESD,
                                                   ML-optimized integration grids
   S Lehtola, MJT Oliveira, MAL Marques          : LibXC Library
   Liviu Ungur et al                             : ANISO software


 Your calculation uses the libint2 library for the computation of 2-el integrals
 For citations please refer to: http://libint.valeyev.net

 Your ORCA version has been built with support for libXC version: 5.1.0
 For citations please refer to: https://tddft.org/programs/libxc/

 This ORCA versions uses:
   CBLAS   interface :  Fast vector & matrix operations
   LAPACKE interface :  Fast linear algebra routines
   SCALAPACK package :  Parallel linear algebra routines
   Shared memory     :  Shared parallel matrices
   BLAS/LAPACK       :  OpenBLAS 0.3.15  USE64BITINT DYNAMIC_ARCH NO_AFFINITY Zen SINGLE_THREADED
        Core in use  :  Zen
   Copyright (c) 2011-2014, The OpenBLAS Project


================================================================================

----- Orbital basis set information -----
Your calculation utilizes the basis: def2-SVP
   F. Weigend and R. Ahlrichs, Phys. Chem. Chem. Phys. 7, 3297 (2005).

================================================================================
                                        WARNINGS
                       Please study these warnings very carefully!
================================================================================


INFO   : the flag for use of the SHARK integral package has been found!

================================================================================
                                       INPUT FILE
================================================================================
NAME = keto_enol_freq.inp
|  1> !HF Freq def2-SVP 
|  2> !PAL2
|  3> 
|  4> 
|  5> *int 0 1
|  6>     C      0   0   0     0.000000000000     0.00000000     0.00000000
|  7>     C      1   0   0     1.524579455348     0.00000000     0.00000000
|  8>     H      1   2   0     1.110814431562   110.53781190     0.00000000
|  9>     H      1   2   3     1.105453354505   109.83646646   238.86889347
| 10>     H      1   2   3     1.110836047751   110.59186188   117.70661606
| 11>     C      2   1   3     1.524586535308   116.32804112   301.02004973
| 12>     H      6   2   1     1.110875949412   110.54696976   300.76192478
| 13>     H      6   2   1     1.105458425981   109.83504254   179.67305048
| 14>     H      6   2   1     1.110799993188   110.60744111    58.47705812
| 15>     O      2   1   3     1.221009403011   121.83949219   121.02644250
| 16> **                         ****END OF INPUT****
================================================================================

                       ****************************
                       * Single Point Calculation *
                       ****************************

---------------------------------
CARTESIAN COORDINATES (ANGSTROEM)
---------------------------------
  C      0.000000    0.000000    0.000000
  C      1.524579    0.000000    0.000000
  H     -0.389702    1.040212    0.000000
  H     -0.375121   -0.537606    0.890107
  H     -0.390691   -0.483479   -0.920633
  C      2.200749    0.704179   -1.171022
  H      1.896820    0.239845   -2.133345
  H      3.299101    0.644847   -1.060841
  H      1.886923    1.768544   -1.221191
  O      2.168713   -0.534651    0.888879

----------------------------
CARTESIAN COORDINATES (A.U.)
----------------------------
  NO LB      ZA    FRAG     MASS         X           Y           Z
   0 C     6.0000    0    12.011    0.000000    0.000000    0.000000
   1 C     6.0000    0    12.011    2.881038    0.000000    0.000000
   2 H     1.0000    0     1.008   -0.736430    1.965716    0.000000
   3 H     1.0000    0     1.008   -0.708876   -1.015929    1.682059
   4 H     1.0000    0     1.008   -0.738298   -0.913643   -1.739745
   5 C     6.0000    0    12.011    4.158812    1.330705   -2.212910
   6 H     1.0000    0     1.008    3.584471    0.453241   -4.031438
   7 H     1.0000    0     1.008    6.234398    1.218584   -2.004698
   8 H     1.0000    0     1.008    3.565768    3.342063   -2.307717
   9 O     8.0000    0    15.999    4.098273   -1.010343    1.679737

--------------------------------
INTERNAL COORDINATES (ANGSTROEM)
--------------------------------
 C      0   0   0     0.000000000000     0.00000000     0.00000000
 C      1   0   0     1.524579455348     0.00000000     0.00000000
 H      1   2   0     1.110814431562   110.53781190     0.00000000
 H      1   2   3     1.105453354505   109.83646646   238.86889347
 H      1   2   3     1.110836047751   110.59186188   117.70661606
 C      2   1   3     1.524586535308   116.32804112   301.02004973
 H      6   2   1     1.110875949412   110.54696976   300.76192478
 H      6   2   1     1.105458425981   109.83504254   179.67305048
 H      6   2   1     1.110799993188   110.60744111    58.47705812
 O      2   1   3     1.221009403011   121.83949219   121.02644250

---------------------------
INTERNAL COORDINATES (A.U.)
---------------------------
 C      0   0   0     0.000000000000     0.00000000     0.00000000
 C      1   0   0     2.881037640011     0.00000000     0.00000000
 H      1   2   0     2.099135061260   110.53781190     0.00000000
 H      1   2   3     2.089004093839   109.83646646   238.86889347
 H      1   2   3     2.099175909937   110.59186188   117.70661606
 C      2   1   3     2.881051019196   116.32804112   301.02004973
 H      6   2   1     2.099251313148   110.54696976   300.76192478
 H      6   2   1     2.089013677540   109.83504254   179.67305048
 H      6   2   1     2.099107776687   110.60744111    58.47705812
 O      2   1   3     2.307373378633   121.83949219   121.02644250

---------------------
BASIS SET INFORMATION
---------------------
There are 3 groups of distinct atoms

 Group   1 Type C   : 7s4p1d contracted to 3s2p1d pattern {511/31/1}
 Group   2 Type H   : 4s1p contracted to 2s1p pattern {31/1}
 Group   3 Type O   : 7s4p1d contracted to 3s2p1d pattern {511/31/1}

Atom   0C    basis set group =>   1
Atom   1C    basis set group =>   1
Atom   2H    basis set group =>   2
Atom   3H    basis set group =>   2
Atom   4H    basis set group =>   2
Atom   5C    basis set group =>   1
Atom   6H    basis set group =>   2
Atom   7H    basis set group =>   2
Atom   8H    basis set group =>   2
Atom   9O    basis set group =>   3


           ************************************************************
           *        Program running with 2 parallel MPI-processes     *
           *              working on a common directory               *
           ************************************************************
------------------------------------------------------------------------------
                           ORCA GTO INTEGRAL CALCULATION
------------------------------------------------------------------------------
------------------------------------------------------------------------------
                   ___                                                        
                  /   \      - P O W E R E D   B Y -                         
                 /     \                                                     
                 |  |  |   _    _      __       _____    __    __             
                 |  |  |  | |  | |    /  \     |  _  \  |  |  /  |          
                  \  \/   | |  | |   /    \    | | | |  |  | /  /          
                 / \  \   | |__| |  /  /\  \   | |_| |  |  |/  /          
                |  |  |   |  __  | /  /__\  \  |    /   |      \           
                |  |  |   | |  | | |   __   |  |    \   |  |\   \          
                \     /   | |  | | |  |  |  |  | |\  \  |  | \   \       
                 \___/    |_|  |_| |__|  |__|  |_| \__\ |__|  \__/        
                                                                              
                      - O R C A' S   B I G   F R I E N D -                    
                                      &                                       
                       - I N T E G R A L  F E E D E R -                       
                                                                              
 v1 FN, 2020, v2 2021                                                         
------------------------------------------------------------------------------


Reading SHARK input file keto_enol_freq.SHARKINP.tmp ... ok
----------------------
SHARK INTEGRAL PACKAGE
----------------------

Number of atoms                             ...     10
Number of basis functions                   ...     86
Number of shells                            ...     42
Maximum angular momentum                    ...      2
Integral batch strategy                     ... SHARK/LIBINT Hybrid
RI-J (if used) integral strategy            ... SPLIT-RIJ (Revised 2003 algorithm where possible)
Printlevel                                  ...      1
Contraction scheme used                     ... SEGMENTED contraction
Coulomb Range Separation                    ... NOT USED
Exchange Range Separation                   ... NOT USED
Finite Nucleus Model                        ... NOT USED
Auxiliary Coulomb fitting basis             ... NOT available
Auxiliary J/K fitting basis                 ... NOT available
Auxiliary Correlation fitting basis         ... NOT available
Auxiliary 'external' fitting basis          ... NOT available
Integral threshold                          ...     1.000000e-10
Primitive cut-off                           ...     1.000000e-11
Primitive pair pre-selection threshold      ...     1.000000e-11

Calculating pre-screening integrals         ... done (  0.0 sec) Dimension = 42
Organizing shell pair data                  ... done (  0.0 sec)
Shell pair information
Total number of shell pairs                 ...       903
Shell pairs after pre-screening             ...       898
Total number of primitive shell pairs       ...      3151
Primitive shell pairs kept                  ...      2563
          la=0 lb=0:    297 shell pairs
          la=1 lb=0:    334 shell pairs
          la=1 lb=1:    105 shell pairs
          la=2 lb=0:     96 shell pairs
          la=2 lb=1:     56 shell pairs
          la=2 lb=2:     10 shell pairs

Calculating one electron integrals          ... done (  0.0 sec)
Calculating Nuclear repulsion               ... done (  0.0 sec) ENN=    118.344312652180 Eh

SHARK setup successfully completed in   0.1 seconds

Maximum memory used throughout the entire GTOINT-calculation: 7.6 MB


           ************************************************************
           *        Program running with 2 parallel MPI-processes     *
           *              working on a common directory               *
           ************************************************************
-------------------------------------------------------------------------------
                                 ORCA SCF
-------------------------------------------------------------------------------

------------
SCF SETTINGS
------------
Hamiltonian:
 Ab initio Hamiltonian  Method          .... Hartree-Fock(GTOs)


General Settings:
 Integral files         IntName         .... keto_enol_freq
 Hartree-Fock type      HFTyp           .... RHF
 Total Charge           Charge          ....    0
 Multiplicity           Mult            ....    1
 Number of Electrons    NEL             ....   32
 Basis Dimension        Dim             ....   86
 Nuclear Repulsion      ENuc            ....    118.3443126522 Eh

Convergence Acceleration:
 DIIS                   CNVDIIS         .... on
   Start iteration      DIISMaxIt       ....    12
   Startup error        DIISStart       ....  0.200000
   # of expansion vecs  DIISMaxEq       ....     5
   Bias factor          DIISBfac        ....   1.050
   Max. coefficient     DIISMaxC        ....  10.000
 Trust-Rad. Augm. Hess. CNVTRAH         .... auto
   Auto Start mean grad. ratio tolernc. ....  1.125000
   Auto Start start iteration           ....    20
   Auto Start num. interpolation iter.  ....    10
   Max. Number of Micro iterations      ....    16
   Max. Number of Macro iterations      .... Maxiter - #DIIS iter
   Number of Davidson start vectors     ....     2
   Converg. threshold I  (grad. norm)   ....   5.000e-05
   Converg. threshold II (energy diff.) ....   1.000e-06
   Grad. Scal. Fac. for Micro threshold ....   0.100
   Minimum threshold for Micro iter.    ....   0.010
   NR start threshold (gradient norm)   ....   0.001
   Initial trust radius                 ....   0.400
   Minimum AH scaling param. (alpha)    ....   1.000
   Maximum AH scaling param. (alpha)    .... 1000.000
   Orbital update algorithm             .... Taylor
   White noise on init. David. guess    .... on
   Maximum white noise                  ....   0.010
   Quad. conv. algorithm                .... NR
 SOSCF                  CNVSOSCF        .... on
   Start iteration      SOSCFMaxIt      ....   150
   Startup grad/error   SOSCFStart      ....  0.003300
 Level Shifting         CNVShift        .... on
   Level shift para.    LevelShift      ....    0.2500
   Turn off err/grad.   ShiftErr        ....    0.0010
 Zerner damping         CNVZerner       .... off
 Static damping         CNVDamp         .... on
   Fraction old density DampFac         ....    0.7000
   Max. Damping (<1)    DampMax         ....    0.9800
   Min. Damping (>=0)   DampMin         ....    0.0000
   Turn off err/grad.   DampErr         ....    0.1000
 Fernandez-Rico         CNVRico         .... off

SCF Procedure:
 Maximum # iterations   MaxIter         ....   125
 SCF integral mode      SCFMode         .... Direct
   Integral package                     .... SHARK and LIBINT hybrid scheme
 Reset frequency        DirectResetFreq ....    20
 Integral Threshold     Thresh          ....  1.000e-10 Eh
 Primitive CutOff       TCut            ....  1.000e-11 Eh

Convergence Tolerance:
 Convergence Check Mode ConvCheckMode   .... Total+1el-Energy
 Convergence forced     ConvForced      .... 0
 Energy Change          TolE            ....  1.000e-06 Eh
 1-El. energy change                    ....  1.000e-03 Eh
 Orbital Gradient       TolG            ....  5.000e-05
 Orbital Rotation angle TolX            ....  5.000e-05
 DIIS Error             TolErr          ....  1.000e-06


Diagonalization of the overlap matrix:
Smallest eigenvalue                        ... 3.661e-03
Time for diagonalization                   ...    0.001 sec
Threshold for overlap eigenvalues          ... 1.000e-08
Number of eigenvalues below threshold      ... 0
Time for construction of square roots      ...    0.001 sec
Total time needed                          ...    0.003 sec

Time for model grid setup =    0.045 sec

------------------------------
INITIAL GUESS: MODEL POTENTIAL
------------------------------
Loading Hartree-Fock densities                     ... done
Calculating cut-offs                               ... done
Initializing the effective Hamiltonian             ... done
Setting up the integral package (SHARK)            ... done
Starting the Coulomb interaction                   ... done (   0.0 sec)
Reading the grid                                   ... done
Mapping shells                                     ... done
Starting the XC term evaluation                    ... done (   0.0 sec)
Transforming the Hamiltonian                       ... done (   0.0 sec)
Diagonalizing the Hamiltonian                      ... done (   0.0 sec)
Back transforming the eigenvectors                 ... done (   0.0 sec)
Now organizing SCF variables                       ... done
                      ------------------
                      INITIAL GUESS DONE (   0.1 sec)
                      ------------------
--------------
SCF ITERATIONS
--------------
ITER       Energy         Delta-E        Max-DP      RMS-DP      [F,P]     Damp
               ***  Starting incremental Fock matrix formation  ***
  0   -191.6215660644   0.000000000000 0.06279940  0.00287511  0.2418565 0.7000
  1   -191.6901732158  -0.068607151401 0.04504257  0.00213909  0.1477630 0.7000
                               ***Turning on DIIS***
  2   -191.7312391006  -0.041065884744 0.09089633  0.00433808  0.0835992 0.0000
  3   -191.5197792811   0.211459819478 0.04267391  0.00194188  0.0523393 0.0000
  4   -191.8092868806  -0.289507599539 0.01222369  0.00064702  0.0089031 0.0000
  5   -191.8114176992  -0.002130818533 0.00711842  0.00036648  0.0069103 0.0000
                      *** Initiating the SOSCF procedure ***
                           *** Shutting down DIIS ***
                      *** Re-Reading the Fockian *** 
                      *** Removing any level shift *** 
ITER      Energy       Delta-E        Grad      Rot      Max-DP    RMS-DP
  6   -191.81561381  -0.0041961114  0.002000  0.002000  0.004203  0.000207
               *** Restarting incremental Fock matrix formation ***
  7   -191.81557763   0.0000361777  0.000754  0.001190  0.001913  0.000088
  8   -191.81558276  -0.0000051296  0.000373  0.001266  0.001713  0.000083
  9   -191.81558479  -0.0000020227  0.000072  0.000094  0.000111  0.000006
                 **** Energy Check signals convergence ****
              ***Rediagonalizing the Fockian in SOSCF/NRSCF***

               *****************************************************
               *                     SUCCESS                       *
               *           SCF CONVERGED AFTER  10 CYCLES          *
               *****************************************************


----------------
TOTAL SCF ENERGY
----------------

Total Energy       :         -191.81558482 Eh           -5219.56742 eV

Components:
Nuclear Repulsion  :          118.34431265 Eh            3220.31246 eV
Electronic Energy  :         -310.15989748 Eh           -8439.87989 eV
One Electron Energy:         -494.53250881 Eh          -13456.91370 eV
Two Electron Energy:          184.37261134 Eh            5017.03382 eV

Virial components:
Potential Energy   :         -382.57845399 Eh          -10410.48899 eV
Kinetic Energy     :          190.76286916 Eh            5190.92157 eV
Virial Ratio       :            2.00551845


---------------
SCF CONVERGENCE
---------------

  Last Energy change         ...   -3.8531e-08  Tolerance :   1.0000e-06
  Last MAX-Density change    ...    5.9926e-05  Tolerance :   1.0000e-05
  Last RMS-Density change    ...    3.8268e-06  Tolerance :   1.0000e-06
  Last Orbital Gradient      ...    2.0198e-05  Tolerance :   5.0000e-05
  Last Orbital Rotation      ...    5.2565e-05  Tolerance :   5.0000e-05

             **** THE GBW FILE WAS UPDATED (keto_enol_freq.gbw) ****
             **** DENSITY keto_enol_freq.scfp WAS UPDATED ****
             **** ENERGY FILE WAS UPDATED (keto_enol_freq.en.tmp) ****
             **** THE GBW FILE WAS UPDATED (keto_enol_freq.gbw) ****
             **** DENSITY keto_enol_freq.scfp WAS UPDATED ****
----------------
ORBITAL ENERGIES
----------------

  NO   OCC          E(Eh)            E(eV) 
   0   2.0000     -20.541449      -558.9612 
   1   2.0000     -11.336728      -308.4880 
   2   2.0000     -11.247736      -306.0665 
   3   2.0000     -11.247712      -306.0658 
   4   2.0000      -1.364130       -37.1199 
   5   2.0000      -1.026534       -27.9334 
   6   2.0000      -0.952259       -25.9123 
   7   2.0000      -0.731866       -19.9151 
   8   2.0000      -0.643508       -17.5107 
   9   2.0000      -0.633023       -17.2254 
  10   2.0000      -0.618004       -16.8168 
  11   2.0000      -0.560640       -15.2558 
  12   2.0000      -0.555894       -15.1267 
  13   2.0000      -0.534559       -14.5461 
  14   2.0000      -0.484530       -13.1847 
  15   2.0000      -0.415153       -11.2969 
  16   0.0000       0.148786         4.0487 
  17   0.0000       0.160971         4.3803 
  18   0.0000       0.222010         6.0412 
  19   0.0000       0.238581         6.4921 
  20   0.0000       0.247683         6.7398 
  21   0.0000       0.272932         7.4268 
  22   0.0000       0.277363         7.5474 
  23   0.0000       0.343792         9.3551 
  24   0.0000       0.422608        11.4997 
  25   0.0000       0.436606        11.8807 
  26   0.0000       0.581547        15.8247 
  27   0.0000       0.609298        16.5799 
  28   0.0000       0.648030        17.6338 
  29   0.0000       0.672812        18.3081 
  30   0.0000       0.700986        19.0748 
  31   0.0000       0.801670        21.8146 
  32   0.0000       0.812344        22.1050 
  33   0.0000       0.830718        22.6050 
  34   0.0000       0.839609        22.8469 
  35   0.0000       0.858709        23.3667 
  36   0.0000       0.878742        23.9118 
  37   0.0000       0.896103        24.3842 
  38   0.0000       0.910219        24.7683 
  39   0.0000       0.918803        25.0019 
  40   0.0000       0.934348        25.4249 
  41   0.0000       0.944575        25.7032 
  42   0.0000       1.036552        28.2060 
  43   0.0000       1.184915        32.2432 
  44   0.0000       1.235216        33.6119 
  45   0.0000       1.313870        35.7522 
  46   0.0000       1.366085        37.1731 
  47   0.0000       1.452729        39.5308 
  48   0.0000       1.545808        42.0636 
  49   0.0000       1.603204        43.6254 
  50   0.0000       1.681012        45.7427 
  51   0.0000       1.774846        48.2960 
  52   0.0000       1.775134        48.3039 
  53   0.0000       1.816022        49.4165 
  54   0.0000       1.845308        50.2134 
  55   0.0000       1.887843        51.3708 
  56   0.0000       1.957701        53.2717 
  57   0.0000       1.967715        53.5442 
  58   0.0000       2.032862        55.3170 
  59   0.0000       2.039654        55.5018 
  60   0.0000       2.057572        55.9894 
  61   0.0000       2.061807        56.1046 
  62   0.0000       2.122641        57.7600 
  63   0.0000       2.204449        59.9861 
  64   0.0000       2.265821        61.6561 
  65   0.0000       2.313767        62.9608 
  66   0.0000       2.363016        64.3009 
  67   0.0000       2.445010        66.5321 
  68   0.0000       2.627480        71.4974 
  69   0.0000       2.636915        71.7541 
  70   0.0000       2.662719        72.4563 
  71   0.0000       2.754505        74.9539 
  72   0.0000       2.759660        75.0942 
  73   0.0000       2.774637        75.5017 
  74   0.0000       2.955547        80.4245 
  75   0.0000       3.003251        81.7226 
  76   0.0000       3.045745        82.8789 
  77   0.0000       3.053007        83.0765 
  78   0.0000       3.169485        86.2461 
  79   0.0000       3.212078        87.4051 
  80   0.0000       3.228151        87.8425 
  81   0.0000       3.284617        89.3790 
  82   0.0000       3.356295        91.3294 
  83   0.0000       3.540835        96.3510 
  84   0.0000       3.755334       102.1878 
  85   0.0000       4.019423       109.3741 

                    ********************************
                    * MULLIKEN POPULATION ANALYSIS *
                    ********************************

-----------------------
MULLIKEN ATOMIC CHARGES
-----------------------
   0 C :   -0.079197
   1 C :    0.148345
   2 H :    0.059185
   3 H :    0.073794
   4 H :    0.059084
   5 C :   -0.079264
   6 H :    0.059313
   7 H :    0.073785
   8 H :    0.058957
   9 O :   -0.374004
Sum of atomic charges:    0.0000000

--------------------------------
MULLIKEN REDUCED ORBITAL CHARGES
--------------------------------
  0 C s       :     3.071270  s :     3.071270
      pz      :     1.033296  p :     2.975165
      px      :     0.917149
      py      :     1.024721
      dz2     :     0.008312  d :     0.032761
      dxz     :     0.004100
      dyz     :     0.005948
      dx2y2   :     0.010762
      dxy     :     0.003639
  1 C s       :     3.174384  s :     3.174384
      pz      :     0.854909  p :     2.565520
      px      :     0.969398
      py      :     0.741213
      dz2     :     0.029587  d :     0.111751
      dxz     :     0.025968
      dyz     :     0.018142
      dx2y2   :     0.022538
      dxy     :     0.015516
  2 H s       :     0.915309  s :     0.915309
      pz      :     0.004045  p :     0.025506
      px      :     0.005355
      py      :     0.016107
  3 H s       :     0.901656  s :     0.901656
      pz      :     0.013434  p :     0.024550
      px      :     0.004052
      py      :     0.007064
  4 H s       :     0.915414  s :     0.915414
      pz      :     0.013260  p :     0.025502
      px      :     0.005360
      py      :     0.006881
  5 C s       :     3.071294  s :     3.071294
      pz      :     0.960655  p :     2.975210
      px      :     1.016591
      py      :     0.997964
      dz2     :     0.007551  d :     0.032760
      dxz     :     0.005923
      dyz     :     0.006365
      dx2y2   :     0.008768
      dxy     :     0.004153
  6 H s       :     0.915178  s :     0.915178
      pz      :     0.014574  p :     0.025509
      px      :     0.004442
      py      :     0.006493
  7 H s       :     0.901665  s :     0.901665
      pz      :     0.003179  p :     0.024550
      px      :     0.018063
      py      :     0.003308
  8 H s       :     0.915545  s :     0.915545
      pz      :     0.004003  p :     0.025498
      px      :     0.004498
      py      :     0.016996
  9 O s       :     3.796420  s :     3.796420
      pz      :     1.453144  p :     4.557385
      px      :     1.718381
      py      :     1.385861
      dz2     :     0.004999  d :     0.020198
      dxz     :     0.005390
      dyz     :     0.004403
      dx2y2   :     0.002197
      dxy     :     0.003210


                     *******************************
                     * LOEWDIN POPULATION ANALYSIS *
                     *******************************

----------------------
LOEWDIN ATOMIC CHARGES
----------------------
   0 C :   -0.064600
   1 C :    0.149100
   2 H :    0.035707
   3 H :    0.037176
   4 H :    0.035645
   5 C :   -0.064624
   6 H :    0.035801
   7 H :    0.037176
   8 H :    0.035546
   9 O :   -0.236927

-------------------------------
LOEWDIN REDUCED ORBITAL CHARGES
-------------------------------
  0 C s       :     2.855574  s :     2.855574
      pz      :     1.061668  p :     3.134150
      px      :     1.013904
      py      :     1.058578
      dz2     :     0.018001  d :     0.074877
      dxz     :     0.010389
      dyz     :     0.013123
      dx2y2   :     0.023971
      dxy     :     0.009393
  1 C s       :     2.887803  s :     2.887803
      pz      :     0.935275  p :     2.741381
      px      :     1.036054
      py      :     0.770053
      dz2     :     0.057287  d :     0.221716
      dxz     :     0.053510
      dyz     :     0.036895
      dx2y2   :     0.044627
      dxy     :     0.029396
  2 H s       :     0.899513  s :     0.899513
      pz      :     0.011670  p :     0.064780
      px      :     0.015769
      py      :     0.037342
  3 H s       :     0.897568  s :     0.897568
      pz      :     0.032387  p :     0.065256
      px      :     0.014138
      py      :     0.018731
  4 H s       :     0.899586  s :     0.899586
      pz      :     0.031562  p :     0.064769
      px      :     0.015780
      py      :     0.017427
  5 C s       :     2.855582  s :     2.855582
      pz      :     1.032124  p :     3.134169
      px      :     1.054295
      py      :     1.047750
      dz2     :     0.018096  d :     0.074873
      dxz     :     0.012999
      dyz     :     0.014721
      dx2y2   :     0.020502
      dxy     :     0.008555
  6 H s       :     0.899421  s :     0.899421
      pz      :     0.034852  p :     0.064778
      px      :     0.013210
      py      :     0.016716
  7 H s       :     0.897569  s :     0.897569
      pz      :     0.010649  p :     0.065255
      px      :     0.043833
      py      :     0.010774
  8 H s       :     0.899686  s :     0.899686
      pz      :     0.011998  p :     0.064768
      px      :     0.013335
      py      :     0.039435
  9 O s       :     3.556298  s :     3.556298
      pz      :     1.511013  p :     4.649309
      px      :     1.738033
      py      :     1.400263
      dz2     :     0.006723  d :     0.031320
      dxz     :     0.009429
      dyz     :     0.007301
      dx2y2   :     0.003116
      dxy     :     0.004751


                      *****************************
                      * MAYER POPULATION ANALYSIS *
                      *****************************

  NA   - Mulliken gross atomic population
  ZA   - Total nuclear charge
  QA   - Mulliken gross atomic charge
  VA   - Mayer's total valence
  BVA  - Mayer's bonded valence
  FA   - Mayer's free valence

  ATOM       NA         ZA         QA         VA         BVA        FA
  0 C      6.0792     6.0000    -0.0792     3.8419     3.8419     0.0000
  1 C      5.8517     6.0000     0.1483     4.0032     4.0032     0.0000
  2 H      0.9408     1.0000     0.0592     0.9827     0.9827     0.0000
  3 H      0.9262     1.0000     0.0738     0.9974     0.9974     0.0000
  4 H      0.9409     1.0000     0.0591     0.9827     0.9827    -0.0000
  5 C      6.0793     6.0000    -0.0793     3.8419     3.8419     0.0000
  6 H      0.9407     1.0000     0.0593     0.9827     0.9827     0.0000
  7 H      0.9262     1.0000     0.0738     0.9974     0.9974     0.0000
  8 H      0.9410     1.0000     0.0590     0.9827     0.9827     0.0000
  9 O      8.3740     8.0000    -0.3740     2.0637     2.0637     0.0000

  Mayer bond orders larger than 0.100000
B(  0-C ,  1-C ) :   0.9743 B(  0-C ,  2-H ) :   0.9731 B(  0-C ,  3-H ) :   0.9800 
B(  0-C ,  4-H ) :   0.9733 B(  1-C ,  5-C ) :   0.9743 B(  1-C ,  9-O ) :   2.0345 
B(  5-C ,  6-H ) :   0.9731 B(  5-C ,  7-H ) :   0.9800 B(  5-C ,  8-H ) :   0.9733 


-------
TIMINGS
-------

Total SCF time: 0 days 0 hours 0 min 2 sec 

Total time                  ....       2.025 sec
Sum of individual times     ....       1.896 sec  ( 93.6%)

Fock matrix formation       ....       1.794 sec  ( 88.6%)
Diagonalization             ....       0.012 sec  (  0.6%)
Density matrix formation    ....       0.001 sec  (  0.0%)
Population analysis         ....       0.003 sec  (  0.1%)
Initial guess               ....       0.026 sec  (  1.3%)
Orbital Transformation      ....       0.000 sec  (  0.0%)
Orbital Orthonormalization  ....       0.000 sec  (  0.0%)
DIIS solution               ....       0.009 sec  (  0.5%)
SOSCF solution              ....       0.006 sec  (  0.3%)

Maximum memory used throughout the entire SCF-calculation: 225.3 MB

-------------------------   --------------------
FINAL SINGLE POINT ENERGY      -191.815584823637
-------------------------   --------------------


                            ***************************************
                            *     ORCA property calculations      *
                            ***************************************

                                    ---------------------
                                    Active property flags
                                    ---------------------
   (+) Dipole Moment


------------------------------------------------------------------------------
                       ORCA ELECTRIC PROPERTIES CALCULATION
------------------------------------------------------------------------------

Dipole Moment Calculation                       ... on
Quadrupole Moment Calculation                   ... off
Polarizability Calculation                      ... off
GBWName                                         ... keto_enol_freq.gbw
Electron density                                ... keto_enol_freq.scfp
The origin for moment calculation is the CENTER OF MASS  = ( 2.779176,  0.084522 -0.140735)

-------------
DIPOLE MOMENT
-------------
                                X             Y             Z
Electronic contribution:      2.01398      -1.67165       2.78054
Nuclear contribution   :     -2.70732       2.24681      -3.73758
                        -----------------------------------------
Total Dipole Moment    :     -0.69334       0.57515      -0.95704
                        -----------------------------------------
Magnitude (a.u.)       :      1.31432
Magnitude (Debye)      :      3.34074



--------------------
Rotational spectrum 
--------------------
 
Rotational constants in cm-1:     0.332616     0.280053     0.161337 
Rotational constants in MHz :  9971.586353  8395.791316  4836.750764 

 Dipole components along the rotational axes: 
x,y,z [a.u.] :     0.000159    -1.314322    -0.000351 
x,y,z [Debye]:     0.000405    -3.340740    -0.000891 

 


           ************************************************************
           *        Program running with 2 parallel MPI-processes     *
           *              working on a common directory               *
           ************************************************************

-------------------------------------------------------------------------------
                               ORCA SCF HESSIAN
-------------------------------------------------------------------------------

                   --------- SHARK INITIALIZATION DONE ---------

Hessian of the Hartree-Fock SCF energy:
Hartree-Fock type                                ... RHF
Number of operators                              ...    1
Number of atoms                                  ...   10
Basis set dimensions                             ...   86
Integral neglect threshold                       ... 1.0e-10
Integral primitive cutoff                        ... 1.0e-11

Nuclear repulsion Hessian  (SHARK)               ... done   (      0.0 sec)

----------------------------------------------
Forming right-hand sides of CP-SCF equations     ...
----------------------------------------------
One electron integral derivatives  (SHARK)       ... done   (      0.0 sec)
Transforming the overlap derivative matrices     ... done   (      0.0 sec)
Making the Q(x) pseudodensities                  ... done   (      0.0 sec)
Adding the E*S(x)*S(y) terms to the Hessian      ... done   (      0.0 sec)
Calculating energy weighted overlap derivatives  ... done   (      0.0 sec)
Two electron integral derivatives (SHARK)        ... done   (      1.1 sec)
tr(F(y)Q(x)) contribution to the Hessian         ... done   (      0.0 sec)
Response fock operator R(S(x)) (SHARK)           ... done   (      1.0 sec)
tr(F(y)S(x)) contribution to the Hessian         ... done   (      0.0 sec)
Transforming and finalizing RHSs                 ... done   (      0.0 sec)

----------------------------------------------
Solving the CP-SCF equations                     ...
----------------------------------------------
     CP-SCF ITERATION   0:   1.0556e-01 (   1.3 sec   0/ 30 done)
     CP-SCF ITERATION   1:   2.5559e-02 (   1.4 sec   0/ 30 done)
     CP-SCF ITERATION   2:   1.2695e-02 (   1.3 sec   3/ 30 done)
     CP-SCF ITERATION   3:   5.6779e-03 (   1.4 sec  13/ 30 done)
     CP-SCF ITERATION   4:   1.9065e-03 (   0.8 sec  26/ 30 done)
     CP-SCF ITERATION   5:   5.4905e-04 (   0.2 sec  30/ 30 done)
                    *** THE CP-SCF HAS CONVERGED ***

                                                 ... done   (      6.5 sec)
Forming perturbed density Hessian contributions  ... done   (      0.0 sec)
2nd integral derivative contribs (SHARK)         ... done   (      5.3 sec)
Dipole derivatives                               ... (center of mass:  2.779176,  0.084522 -0.140735)done   (      0.1 sec)

Total SCF Hessian time: 0 days 0 hours 0 min 14 sec 

Writing the Hessian file to the disk             ... done


Maximum memory used throughout the entire SCFHESS-calculation: 54.8 MB

-----------------------
VIBRATIONAL FREQUENCIES
-----------------------

Scaling factor for frequencies =  1.000000000  (already applied!)

   0:         0.00 cm**-1
   1:         0.00 cm**-1
   2:         0.00 cm**-1
   3:         0.00 cm**-1
   4:         0.00 cm**-1
   5:         0.00 cm**-1
   6:       389.10 cm**-1
   7:       403.18 cm**-1
   8:       440.40 cm**-1
   9:       600.32 cm**-1
  10:       623.23 cm**-1
  11:       823.81 cm**-1
  12:      1003.74 cm**-1
  13:      1014.17 cm**-1
  14:      1193.47 cm**-1
  15:      1241.34 cm**-1
  16:      1340.68 cm**-1
  17:      1532.28 cm**-1
  18:      1543.14 cm**-1
  19:      1575.46 cm**-1
  20:      1580.98 cm**-1
  21:      1583.08 cm**-1
  22:      1601.22 cm**-1
  23:      1838.64 cm**-1
  24:      3023.10 cm**-1
  25:      3030.64 cm**-1
  26:      3083.28 cm**-1
  27:      3091.54 cm**-1
  28:      3149.22 cm**-1
  29:      3150.08 cm**-1


------------
NORMAL MODES
------------

These modes are the Cartesian displacements weighted by the diagonal matrix
M(i,i)=1/sqrt(m[i]) where m[i] is the mass of the displaced atom
Thus, these vectors are normalized but *not* orthogonal

                  0          1          2          3          4          5    
      0       0.000000   0.000000   0.000000   0.000000   0.000000   0.000000
      1       0.000000   0.000000   0.000000   0.000000   0.000000   0.000000
      2       0.000000   0.000000   0.000000   0.000000   0.000000   0.000000
      3       0.000000   0.000000   0.000000   0.000000   0.000000   0.000000
      4       0.000000   0.000000   0.000000   0.000000   0.000000   0.000000
      5       0.000000   0.000000   0.000000   0.000000   0.000000   0.000000
      6       0.000000   0.000000   0.000000   0.000000   0.000000   0.000000
      7       0.000000   0.000000   0.000000   0.000000   0.000000   0.000000
      8       0.000000   0.000000   0.000000   0.000000   0.000000   0.000000
      9       0.000000   0.000000   0.000000   0.000000   0.000000   0.000000
     10       0.000000   0.000000   0.000000   0.000000   0.000000   0.000000
     11       0.000000   0.000000   0.000000   0.000000   0.000000   0.000000
     12       0.000000   0.000000   0.000000   0.000000   0.000000   0.000000
     13       0.000000   0.000000   0.000000   0.000000   0.000000   0.000000
     14       0.000000   0.000000   0.000000   0.000000   0.000000   0.000000
     15       0.000000   0.000000   0.000000   0.000000   0.000000   0.000000
     16       0.000000   0.000000   0.000000   0.000000   0.000000   0.000000
     17       0.000000   0.000000   0.000000   0.000000   0.000000   0.000000
     18       0.000000   0.000000   0.000000   0.000000   0.000000   0.000000
     19       0.000000   0.000000   0.000000   0.000000   0.000000   0.000000
     20       0.000000   0.000000   0.000000   0.000000   0.000000   0.000000
     21       0.000000   0.000000   0.000000   0.000000   0.000000   0.000000
     22       0.000000   0.000000   0.000000   0.000000   0.000000   0.000000
     23       0.000000   0.000000   0.000000   0.000000   0.000000   0.000000
     24       0.000000   0.000000   0.000000   0.000000   0.000000   0.000000
     25       0.000000   0.000000   0.000000   0.000000   0.000000   0.000000
     26       0.000000   0.000000   0.000000   0.000000   0.000000   0.000000
     27       0.000000   0.000000   0.000000   0.000000   0.000000   0.000000
     28       0.000000   0.000000   0.000000   0.000000   0.000000   0.000000
     29       0.000000   0.000000   0.000000   0.000000   0.000000   0.000000
                  6          7          8          9         10         11    
      0       0.000059   0.000517  -0.090431   0.215982   0.000804   0.289929
      1       0.020126  -0.031240  -0.093553  -0.046221  -0.019631   0.005599
      2       0.011957  -0.019706   0.155001   0.077265  -0.011306  -0.009511
      3      -0.000018   0.000373  -0.069634   0.101191   0.000385  -0.074511
      4       0.000475  -0.014324   0.057524   0.030754   0.247850   0.061803
      5       0.000377  -0.008114  -0.096280  -0.055023   0.148633  -0.102996
      6       0.037850   0.027048  -0.246986   0.090864  -0.392328   0.261498
      7       0.035122  -0.019091  -0.151252  -0.094303  -0.168703  -0.011521
      8       0.422409   0.409622   0.264157   0.168799  -0.036758   0.030863
      9      -0.000405  -0.000788   0.224206   0.507433   0.003072   0.496601
     10      -0.292442  -0.360901  -0.155817  -0.096505  -0.252173  -0.026763
     11      -0.177042  -0.219399   0.250486   0.165219  -0.150818   0.045753
     12      -0.037067  -0.024735  -0.249277   0.084328   0.391424   0.259892
     13       0.390791   0.355045  -0.154217  -0.103728  -0.112773  -0.022106
     14      -0.165974  -0.209314   0.253247   0.164728  -0.130124   0.025131
     15      -0.000219  -0.000833   0.202403   0.014784   0.000166  -0.138344
     16      -0.018806  -0.032718   0.000078   0.120309  -0.019011  -0.131549
     17      -0.011275  -0.019680  -0.000949  -0.199734  -0.012386   0.219123
     18       0.304618  -0.302099   0.376176  -0.132341  -0.224717  -0.087424
     19      -0.318238   0.247142   0.043778   0.091463  -0.307501  -0.133984
     20       0.035930  -0.057124  -0.077788  -0.140603   0.195636   0.211159
     21      -0.002153   0.001247   0.165111   0.053267   0.001996  -0.172691
     22       0.307543  -0.347795  -0.173511   0.280494  -0.250672  -0.241141
     23       0.183397  -0.209873   0.282518  -0.460353  -0.155371   0.400791
     24      -0.302411   0.295608   0.382120  -0.138360   0.222003  -0.086457
     25      -0.122369   0.069472   0.050532   0.079186   0.028030  -0.122827
     26      -0.298933   0.246964  -0.073349  -0.140409  -0.362158   0.215179
     27       0.000107   0.000191  -0.072822  -0.278521  -0.001108  -0.100164
     28      -0.001373   0.062305   0.061042  -0.088575  -0.090036   0.083335
     29      -0.000782   0.038125  -0.100029   0.148535  -0.053500  -0.138563
                 12         13         14         15         16         17    
      0      -0.080245   0.000479  -0.000590  -0.000003  -0.044101  -0.103366
      1       0.044338  -0.081454   0.060513   0.105427  -0.047698   0.001320
      2      -0.075305  -0.048273  -0.100345   0.063642   0.079132  -0.002007
      3       0.109852  -0.000800   0.008695   0.000101   0.285287  -0.004949
      4       0.034997  -0.000017  -0.007296  -0.186495   0.091296   0.004201
      5      -0.058553   0.000651   0.011944  -0.112277  -0.151592  -0.007162
      6      -0.361461   0.460781  -0.259676  -0.425486  -0.098394   0.385704
      7      -0.058920   0.096754  -0.037330  -0.061079  -0.051025   0.177321
      8       0.156320   0.066341   0.166803  -0.097868  -0.156043   0.056083
      9       0.382540  -0.003700   0.530810   0.000013  -0.590265   0.321725
     10      -0.040996   0.181641  -0.039289  -0.227145   0.050599  -0.077816
     11       0.072052   0.108856   0.064626  -0.137218  -0.083910   0.127783
     12      -0.372032  -0.454382  -0.260303   0.425379  -0.097791   0.385362
     13      -0.108588   0.106200  -0.129940  -0.115916   0.161741  -0.132706
     14       0.126493   0.052689   0.110773  -0.008521  -0.027381  -0.130785
     15       0.042762  -0.000350  -0.104841   0.000003  -0.102283   0.043127
     16      -0.055985   0.081441   0.027068   0.105768   0.000696   0.047805
     17       0.095103   0.047822  -0.045115   0.063587  -0.001308  -0.079841
     18      -0.310308  -0.194455   0.260133  -0.143457   0.052756  -0.207207
     19      -0.109333  -0.312162   0.035777  -0.296881  -0.177743  -0.323496
     20       0.234408   0.292513  -0.163743   0.295321   0.054151   0.186207
     21       0.095457   0.001118  -0.167957   0.002280  -0.174106  -0.008991
     22       0.194524  -0.183229  -0.263517  -0.226935  -0.295227  -0.178090
     23      -0.326163  -0.109226   0.436724  -0.138594   0.490383   0.302017
     24      -0.309009   0.197514   0.261587   0.141102   0.052076  -0.206634
     25      -0.156779   0.112207   0.131162   0.118542   0.037966  -0.011721
     26       0.201580  -0.415609  -0.112104  -0.401184   0.179778   0.371433
     27       0.000787   0.000070   0.049652  -0.000065  -0.050366   0.006728
     28       0.000117  -0.000067  -0.041174   0.032453  -0.016009  -0.005602
     29      -0.000183   0.000130   0.068539   0.019525   0.026590   0.009317
                 18         19         20         21         22         23    
      0       0.127848   0.001908  -0.011145  -0.000196   0.000199  -0.048660
      1       0.008303   0.020240  -0.020411  -0.039730   0.030383   0.018877
      2      -0.013832  -0.032916   0.035491  -0.023276   0.018581  -0.031451
      3      -0.081659   0.018563  -0.014053  -0.000421  -0.000402   0.357376
      4      -0.026279   0.005782   0.012216  -0.000105   0.023678  -0.296829
      5       0.043281  -0.009107  -0.020289  -0.000601   0.014436   0.493525
      6      -0.383736   0.111198  -0.065738  -0.197429   0.215872  -0.112120
      7      -0.179823   0.053630  -0.033443  -0.104173   0.103526  -0.001157
      8       0.010296   0.452237  -0.440137   0.249230  -0.245273  -0.127694
      9      -0.295422  -0.258756   0.249328   0.004100   0.000840   0.322635
     10       0.087761   0.062416  -0.074723   0.453318  -0.429113  -0.065871
     11      -0.144248  -0.110687   0.104697   0.276210  -0.258759   0.109354
     12      -0.383204   0.107745  -0.072409   0.195647  -0.217567  -0.112422
     13       0.075054  -0.427936   0.398488   0.184231  -0.164201   0.114046
     14       0.163935   0.165925  -0.167393  -0.213507   0.204357  -0.058602
     15       0.071350   0.033387   0.043646   0.001170   0.000142  -0.010853
     16       0.055549  -0.007549  -0.005303   0.038746   0.031790   0.030913
     17      -0.092798   0.012498   0.007026   0.022990   0.018461  -0.051335
     18      -0.263176  -0.262837  -0.311838   0.313461   0.338487  -0.050372
     19      -0.286006   0.352415   0.349606   0.000597   0.009869   0.133797
     20       0.181897  -0.075066  -0.060214  -0.067481  -0.086482  -0.092207
     21       0.019854  -0.001307   0.004098   0.002837   0.002709  -0.028359
     22      -0.171815  -0.138687  -0.140655  -0.448347  -0.443368  -0.176793
     23       0.294897   0.236542   0.261921  -0.257033  -0.262427   0.295970
     24      -0.260565  -0.257906  -0.292621  -0.330893  -0.341012  -0.048307
     25      -0.025889  -0.103448  -0.112659  -0.068359  -0.075173   0.018166
     26       0.335859  -0.346749  -0.338629   0.015066   0.049345  -0.163879
     27       0.010439  -0.005034   0.016971   0.000358   0.000088  -0.221792
     28       0.003340  -0.001166  -0.014224  -0.000270  -0.001544   0.184063
     29      -0.005531   0.001865   0.023619   0.000509  -0.000892  -0.306020
                 24         25         26         27         28         29    
      0      -0.037550  -0.033607  -0.000015  -0.000045   0.005282   0.009699
      1       0.007577   0.006660  -0.053107  -0.058511   0.023099   0.042439
      2      -0.012656  -0.010840  -0.032137  -0.035344  -0.038222  -0.070196
      3       0.003555   0.000959  -0.000006   0.000012   0.000489  -0.001677
      4       0.001059  -0.001008  -0.000009  -0.000500  -0.000411   0.001407
      5      -0.001748   0.001681   0.000035  -0.000339   0.000686  -0.002334
      6       0.163810   0.144615  -0.166791  -0.182990   0.043415   0.083868
      7      -0.454461  -0.403933   0.443341   0.487509  -0.119522  -0.227902
      8      -0.006016  -0.004716  -0.005215  -0.005982  -0.003601  -0.006992
      9       0.094850   0.090604  -0.000177   0.000044  -0.149197  -0.270620
     10       0.144839   0.133148  -0.008511  -0.007080  -0.215267  -0.391116
     11      -0.239847  -0.220402  -0.004537  -0.004463   0.356392   0.647494
     12       0.164586   0.144500   0.167143   0.183403   0.043451   0.083925
     13       0.217033   0.191366   0.201520   0.221349   0.058682   0.111965
     14       0.400472   0.354264   0.394844   0.434296   0.104048   0.198167
     15      -0.002955   0.003726   0.000064  -0.000053   0.077708  -0.042579
     16      -0.018094   0.020263   0.058657  -0.053385  -0.014253   0.007779
     17       0.030970  -0.034637   0.034847  -0.031821   0.023607  -0.012996
     18      -0.117808   0.132440  -0.145934   0.133419  -0.059353   0.033715
     19      -0.188408   0.210251  -0.212498   0.193945  -0.102699   0.058607
     20      -0.373282   0.415419  -0.450139   0.410344  -0.200432   0.115128
     21       0.259636  -0.301266  -0.006355   0.005141  -0.801313   0.434241
     22      -0.016893   0.017758   0.009332  -0.006806   0.044326  -0.024131
     23       0.031067  -0.032925   0.004716  -0.003370  -0.082366   0.044787
     24      -0.120224   0.135204   0.151699  -0.138078  -0.063924   0.036008
     25       0.411841  -0.458849  -0.499555   0.453208   0.232401  -0.132316
     26      -0.011840   0.012697   0.027530  -0.024878  -0.005500   0.003466
     27      -0.000287  -0.000092  -0.000006   0.000006  -0.000491   0.000669
     28      -0.000079   0.000092   0.000022  -0.000180   0.000099  -0.000646
     29       0.000129  -0.000156   0.000006  -0.000100  -0.000162   0.001074


-----------
IR SPECTRUM
-----------

 Mode   freq       eps      Int      T**2         TX        TY        TZ
       cm**-1   L/(mol*cm) km/mol    a.u.
----------------------------------------------------------------------------
  6:    389.10   0.000000    0.00  0.000000  (-0.000065  0.000107 -0.000037)
  7:    403.18   0.000006    0.03  0.000005  ( 0.000095 -0.001889 -0.001020)
  8:    440.40   0.000302    1.53  0.000214  ( 0.007746 -0.006411  0.010620)
  9:    600.32   0.004026   20.34  0.002093  ( 0.038915  0.012324 -0.020652)
 10:    623.23   0.000445    2.25  0.000223  ( 0.000128  0.012936  0.007463)
 11:    823.81   0.000000    0.00  0.000000  (-0.000159 -0.000172  0.000285)
 12:   1003.74   0.001601    8.09  0.000498  ( 0.019081  0.005914 -0.009939)
 13:   1014.17   0.000001    0.00  0.000000  (-0.000281 -0.000222 -0.000252)
 14:   1193.47   0.000446    2.25  0.000117  (-0.005932  0.004612 -0.007757)
 15:   1241.34   0.000631    3.19  0.000159  ( 0.000010 -0.010725 -0.006596)
 16:   1340.68   0.014153   71.52  0.003294  ( 0.048582  0.015752 -0.026191)
 17:   1532.28   0.001554    7.85  0.000317  ( 0.009268 -0.007805  0.013027)
 18:   1543.14   0.009774   49.39  0.001977  (-0.037850 -0.011912  0.020050)
 19:   1575.46   0.000201    1.02  0.000040  (-0.004653 -0.002283  0.003603)
 20:   1580.98   0.006241   31.54  0.001232  (-0.018774  0.015412 -0.025334)
 21:   1583.08   0.000003    0.02  0.000001  (-0.000426  0.000661 -0.000180)
 22:   1601.22   0.004450   22.49  0.000867  (-0.000104 -0.025231 -0.015191)
 23:   1838.64   0.045685  230.87  0.007754  ( 0.046382 -0.038563  0.064153)
 24:   3023.10   0.000639    3.23  0.000066  (-0.007418 -0.001702  0.002827)
 25:   3030.64   0.001761    8.90  0.000181  (-0.006574  0.006076 -0.010058)
 26:   3083.28   0.000008    0.04  0.000001  (-0.000133  0.000865  0.000273)
 27:   3091.54   0.005804   29.33  0.000586  ( 0.000081 -0.020795 -0.012385)
 28:   3149.22   0.002056   10.39  0.000204  ( 0.013586  0.002201 -0.003787)
 29:   3150.08   0.001748    8.83  0.000173  (-0.003092  0.006640 -0.010932)

* The epsilon (eps) is given for a Dirac delta lineshape.
** The dipole moment derivative (T) already includes vibrational overlap.

The first frequency considered to be a vibration is 6
The total number of vibrations considered is 24


--------------------------
THERMOCHEMISTRY AT 298.15K
--------------------------

Temperature         ... 298.15 K
Pressure            ... 1.00 atm
Total Mass          ... 58.08 AMU

Throughout the following assumptions are being made:
  (1) The electronic state is orbitally nondegenerate
  (2) There are no thermally accessible electronically excited states
  (3) Hindered rotations indicated by low frequency modes are not
      treated as such but are treated as vibrations and this may
      cause some error
  (4) All equations used are the standard statistical mechanics
      equations for an ideal gas
  (5) All vibrations are strictly harmonic

freq.     389.10  E(vib)   ...       0.20 
freq.     403.18  E(vib)   ...       0.19 
freq.     440.40  E(vib)   ...       0.17 
freq.     600.32  E(vib)   ...       0.10 
freq.     623.23  E(vib)   ...       0.09 
freq.     823.81  E(vib)   ...       0.05 
freq.    1003.74  E(vib)   ...       0.02 
freq.    1014.17  E(vib)   ...       0.02 
freq.    1193.47  E(vib)   ...       0.01 
freq.    1241.34  E(vib)   ...       0.01 
freq.    1340.68  E(vib)   ...       0.01 
freq.    1532.28  E(vib)   ...       0.00 
freq.    1543.14  E(vib)   ...       0.00 
freq.    1575.46  E(vib)   ...       0.00 
freq.    1580.98  E(vib)   ...       0.00 
freq.    1583.08  E(vib)   ...       0.00 
freq.    1601.22  E(vib)   ...       0.00 
freq.    1838.64  E(vib)   ...       0.00 
freq.    3023.10  E(vib)   ...       0.00 
freq.    3030.64  E(vib)   ...       0.00 
freq.    3083.28  E(vib)   ...       0.00 
freq.    3091.54  E(vib)   ...       0.00 
freq.    3149.22  E(vib)   ...       0.00 
freq.    3150.08  E(vib)   ...       0.00 

------------
INNER ENERGY
------------

The inner energy is: U= E(el) + E(ZPE) + E(vib) + E(rot) + E(trans)
    E(el)   - is the total energy from the electronic structure calculation
              = E(kin-el) + E(nuc-el) + E(el-el) + E(nuc-nuc)
    E(ZPE)  - the the zero temperature vibrational energy from the frequency calculation
    E(vib)  - the the finite temperature correction to E(ZPE) due to population
              of excited vibrational states
    E(rot)  - is the rotational thermal energy
    E(trans)- is the translational thermal energy

Summary of contributions to the inner energy U:
Electronic energy                ...   -191.81558482 Eh
Zero point energy                ...      0.08852070 Eh      55.55 kcal/mol
Thermal vibrational correction   ...      0.00141322 Eh       0.89 kcal/mol
Thermal rotational correction    ...      0.00141627 Eh       0.89 kcal/mol
Thermal translational correction ...      0.00141627 Eh       0.89 kcal/mol
-----------------------------------------------------------------------
Total thermal energy                   -191.72281835 Eh


Summary of corrections to the electronic energy:
(perhaps to be used in another calculation)
Total thermal correction                  0.00424577 Eh       2.66 kcal/mol
Non-thermal (ZPE) correction              0.08852070 Eh      55.55 kcal/mol
-----------------------------------------------------------------------
Total correction                          0.09276647 Eh      58.21 kcal/mol


--------
ENTHALPY
--------

The enthalpy is H = U + kB*T
                kB is Boltzmann's constant
Total free energy                 ...   -191.72281835 Eh 
Thermal Enthalpy correction       ...      0.00094421 Eh       0.59 kcal/mol
-----------------------------------------------------------------------
Total Enthalpy                    ...   -191.72187415 Eh


Note: Only C1 symmetry has been detected, increase convergence thresholds 
      if your molecule has a higher symmetry. Symmetry factor of 1.0 is   
      used for the rotational entropy correction. 
 

Note: Rotational entropy computed according to Herzberg 
Infrared and Raman Spectra, Chapter V,1, Van Nostrand Reinhold, 1945 
Point Group:  C1, Symmetry Number:   1  
Rotational constants in cm-1:     0.332616     0.280053     0.161337 

Vibrational entropy computed according to the QRRHO of S. Grimme
Chem.Eur.J. 2012 18 9955


-------
ENTROPY
-------

The entropy contributions are T*S = T*(S(el)+S(vib)+S(rot)+S(trans))
     S(el)   - electronic entropy
     S(vib)  - vibrational entropy
     S(rot)  - rotational entropy
     S(trans)- translational entropy
The entropies will be listed as multiplied by the temperature to get
units of energy

Electronic entropy                ...      0.00000000 Eh      0.00 kcal/mol
Vibrational entropy               ...      0.00198260 Eh      1.24 kcal/mol
Rotational entropy                ...      0.01149255 Eh      7.21 kcal/mol
Translational entropy             ...      0.01810171 Eh     11.36 kcal/mol
-----------------------------------------------------------------------
Final entropy term                ...      0.03157687 Eh     19.81 kcal/mol

In case the symmetry of your molecule has not been determined correctly
or in case you have a reason to use a different symmetry number we print 
out the resulting rotational entropy values for sn=1,12 :
 --------------------------------------------------------
|  sn= 1 | S(rot)=       0.01149255 Eh      7.21 kcal/mol|
|  sn= 2 | S(rot)=       0.01083810 Eh      6.80 kcal/mol|
|  sn= 3 | S(rot)=       0.01045526 Eh      6.56 kcal/mol|
|  sn= 4 | S(rot)=       0.01018364 Eh      6.39 kcal/mol|
|  sn= 5 | S(rot)=       0.00997295 Eh      6.26 kcal/mol|
|  sn= 6 | S(rot)=       0.00980081 Eh      6.15 kcal/mol|
|  sn= 7 | S(rot)=       0.00965526 Eh      6.06 kcal/mol|
|  sn= 8 | S(rot)=       0.00952918 Eh      5.98 kcal/mol|
|  sn= 9 | S(rot)=       0.00941798 Eh      5.91 kcal/mol|
|  sn=10 | S(rot)=       0.00931850 Eh      5.85 kcal/mol|
|  sn=11 | S(rot)=       0.00922851 Eh      5.79 kcal/mol|
|  sn=12 | S(rot)=       0.00914635 Eh      5.74 kcal/mol|
 --------------------------------------------------------


-------------------
GIBBS FREE ENERGY
-------------------

The Gibbs free energy is G = H - T*S

Total enthalpy                    ...   -191.72187415 Eh 
Total entropy correction          ...     -0.03157687 Eh    -19.81 kcal/mol
-----------------------------------------------------------------------
Final Gibbs free energy         ...   -191.75345101 Eh

For completeness - the Gibbs free energy minus the electronic energy
G-E(el)                           ...      0.06213381 Eh     38.99 kcal/mol


Timings for individual modules:

Sum of individual times         ...       18.671 sec (=   0.311 min)
GTO integral calculation        ...        0.945 sec (=   0.016 min)   5.1 %
SCF iterations                  ...        2.474 sec (=   0.041 min)  13.3 %
Analytical frequency calculation...       15.252 sec (=   0.254 min)  81.7 %
                             ****ORCA TERMINATED NORMALLY****
TOTAL RUN TIME: 0 days 0 hours 0 minutes 19 seconds 264 msec
