
                                 *****************
                                 * O   R   C   A *
                                 *****************

                                            #,                                       
                                            ###                                      
                                            ####                                     
                                            #####                                    
                                            ######                                   
                                           ########,                                 
                                     ,,################,,,,,                         
                               ,,#################################,,                 
                          ,,##########################################,,             
                       ,#########################################, ''#####,          
                    ,#############################################,,   '####,        
                  ,##################################################,,,,####,       
                ,###########''''           ''''###############################       
              ,#####''   ,,,,##########,,,,          '''####'''          '####       
            ,##' ,,,,###########################,,,                        '##       
           ' ,,###''''                  '''############,,,                           
         ,,##''                                '''############,,,,        ,,,,,,###''
      ,#''                                            '''#######################'''  
     '                                                          ''''####''''         
             ,#######,   #######,   ,#######,      ##                                
            ,#'     '#,  ##    ##  ,#'     '#,    #''#        ######   ,####,        
            ##       ##  ##   ,#'  ##            #'  '#       #        #'  '#        
            ##       ##  #######   ##           ,######,      #####,   #    #        
            '#,     ,#'  ##    ##  '#,     ,#' ,#      #,         ##   #,  ,#        
             '#######'   ##     ##  '#######'  #'      '#     #####' # '####'        



                  #######################################################
                  #                        -***-                        #
                  #          Department of theory and spectroscopy      #
                  #    Directorship and core code : Frank Neese         #
                  #        Max Planck Institute fuer Kohlenforschung    #
                  #                Kaiser Wilhelm Platz 1               #
                  #                 D-45470 Muelheim/Ruhr               #
                  #                      Germany                        #
                  #                                                     #
                  #                  All rights reserved                #
                  #                        -***-                        #
                  #######################################################


                         Program Version 5.0.4 -  RELEASE  -


 With contributions from (in alphabetic order):
   Daniel Aravena         : Magnetic Suceptibility
   Michael Atanasov       : Ab Initio Ligand Field Theory (pilot matlab implementation)
   Alexander A. Auer      : GIAO ZORA, VPT2 properties, NMR spectrum
   Ute Becker             : Parallelization
   Giovanni Bistoni       : ED, misc. LED, open-shell LED, HFLD
   Martin Brehm           : Molecular dynamics
   Dmytro Bykov           : SCF Hessian
   Vijay G. Chilkuri      : MRCI spin determinant printing, contributions to CSF-ICE
   Dipayan Datta          : RHF DLPNO-CCSD density
   Achintya Kumar Dutta   : EOM-CC, STEOM-CC
   Dmitry Ganyushin       : Spin-Orbit,Spin-Spin,Magnetic field MRCI
   Miquel Garcia          : C-PCM and meta-GGA Hessian, CC/C-PCM, Gaussian charge scheme
   Yang Guo               : DLPNO-NEVPT2, F12-NEVPT2, CIM, IAO-localization
   Andreas Hansen         : Spin unrestricted coupled pair/coupled cluster methods
   Benjamin Helmich-Paris : MC-RPA, TRAH-SCF, COSX integrals
   Lee Huntington         : MR-EOM, pCC
   Robert Izsak           : Overlap fitted RIJCOSX, COSX-SCS-MP3, EOM
   Marcus Kettner         : VPT2
   Christian Kollmar      : KDIIS, OOCD, Brueckner-CCSD(T), CCSD density, CASPT2, CASPT2-K
   Simone Kossmann        : Meta GGA functionals, TD-DFT gradient, OOMP2, MP2 Hessian
   Martin Krupicka        : Initial AUTO-CI
   Lucas Lang             : DCDCAS
   Marvin Lechner         : AUTO-CI (C++ implementation), FIC-MRCC
   Dagmar Lenk            : GEPOL surface, SMD
   Dimitrios Liakos       : Extrapolation schemes; Compound Job, initial MDCI parallelization
   Dimitrios Manganas     : Further ROCIS development; embedding schemes
   Dimitrios Pantazis     : SARC Basis sets
   Anastasios Papadopoulos: AUTO-CI, single reference methods and gradients
   Taras Petrenko         : DFT Hessian,TD-DFT gradient, ASA, ECA, R-Raman, ABS, FL, XAS/XES, NRVS
   Peter Pinski           : DLPNO-MP2, DLPNO-MP2 Gradient
   Christoph Reimann      : Effective Core Potentials
   Marius Retegan         : Local ZFS, SOC
   Christoph Riplinger    : Optimizer, TS searches, QM/MM, DLPNO-CCSD(T), (RO)-DLPNO pert. Triples
   Tobias Risthaus        : Range-separated hybrids, TD-DFT gradient, RPA, STAB
   Michael Roemelt        : Original ROCIS implementation
   Masaaki Saitow         : Open-shell DLPNO-CCSD energy and density
   Barbara Sandhoefer     : DKH picture change effects
   Avijit Sen             : IP-ROCIS
   Kantharuban Sivalingam : CASSCF convergence, NEVPT2, FIC-MRCI
   Bernardo de Souza      : ESD, SOC TD-DFT
   Georgi Stoychev        : AutoAux, RI-MP2 NMR, DLPNO-MP2 response
   Willem Van den Heuvel  : Paramagnetic NMR
   Boris Wezisla          : Elementary symmetry handling
   Frank Wennmohs         : Technical directorship


 We gratefully acknowledge several colleagues who have allowed us to
 interface, adapt or use parts of their codes:
   Stefan Grimme, W. Hujo, H. Kruse, P. Pracht,  : VdW corrections, initial TS optimization,
                  C. Bannwarth, S. Ehlert          DFT functionals, gCP, sTDA/sTD-DF
   Ed Valeev, F. Pavosevic, A. Kumar             : LibInt (2-el integral package), F12 methods
   Garnet Chan, S. Sharma, J. Yang, R. Olivares  : DMRG
   Ulf Ekstrom                                   : XCFun DFT Library
   Mihaly Kallay                                 : mrcc  (arbitrary order and MRCC methods)
   Jiri Pittner, Ondrej Demel                    : Mk-CCSD
   Frank Weinhold                                : gennbo (NPA and NBO analysis)
   Christopher J. Cramer and Donald G. Truhlar   : smd solvation model
   Lars Goerigk                                  : TD-DFT with DH, B97 family of functionals
   V. Asgeirsson, H. Jonsson                     : NEB implementation
   FAccTs GmbH                                   : IRC, NEB, NEB-TS, DLPNO-Multilevel, CI-OPT
                                                   MM, QMMM, 2- and 3-layer-ONIOM, Crystal-QMMM,
                                                   LR-CPCM, SF, NACMEs, symmetry and pop. for TD-DFT,
                                                   nearIR, NL-DFT gradient (VV10), updates on ESD,
                                                   ML-optimized integration grids
   S Lehtola, MJT Oliveira, MAL Marques          : LibXC Library
   Liviu Ungur et al                             : ANISO software


 Your calculation uses the libint2 library for the computation of 2-el integrals
 For citations please refer to: http://libint.valeyev.net

 Your ORCA version has been built with support for libXC version: 5.1.0
 For citations please refer to: https://tddft.org/programs/libxc/

 This ORCA versions uses:
   CBLAS   interface :  Fast vector & matrix operations
   LAPACKE interface :  Fast linear algebra routines
   SCALAPACK package :  Parallel linear algebra routines
   Shared memory     :  Shared parallel matrices
   BLAS/LAPACK       :  OpenBLAS 0.3.15  USE64BITINT DYNAMIC_ARCH NO_AFFINITY Zen SINGLE_THREADED
        Core in use  :  Zen
   Copyright (c) 2011-2014, The OpenBLAS Project


leaving
================================================================================

----- Orbital basis set information -----
================================================================================
                                        WARNINGS
                       Please study these warnings very carefully!
================================================================================


WARNING: Direct SCF is incompatible with Method<>HF and Method<>DFT
  ===> : conventional SCF is chosen

WARNING: The NDO methods need Guess=HUECKEL or Guess=HCORE or Guess=MOREAD
  ===> : Guess is set to Hueckel

WARNING: The NDO methods need %rel::SOCType==1
  ===> : %rel::SOCType is set to 1

WARNING: The NDO methods cannot have frozencore=1
  ===> : %method FrozenCore=0 end

WARNING: The NDO methods cannot be used with Shark
  ===> : Turning Shark off

WARNING: Geometry Optimization
  ===> : Switching off AutoStart
         For restart on a previous wavefunction, please use MOREAD
================================================================================
                                       INPUT FILE
================================================================================
NAME = FCl_TS_OPT.inp
|  1> !PM3 OptTS NumFreq
|  2> 
|  3> %geom
|  4> 	Calc_hess true
|  5> 	NumHess true
|  6> 	Recalc_Hess 5
|  7> end
|  8> 
|  9> *int -1 1
| 10> 	C      0   0   0     0.000000000000     0.00000000     0.00000000
| 11> 	Cl     1   0   0     2.079585242487     0.00000000     0.00000000
| 12> 	H      1   2   0     1.081721867911    96.03923931     0.00000000
| 13> 	H      1   2   3     1.081741782719    96.03225715   239.99909738
| 14> 	H      1   2   3     1.081734493373    96.03564226   120.00574515
| 15> 	F      1   2   3     2.100000027633   179.98926144    28.59469063
| 16> **                         ****END OF INPUT****
================================================================================

                       *****************************
                       * Geometry Optimization Run *
                       *****************************

Geometry optimization settings:
Update method            Update   .... Bofill
Choice of coordinates    CoordSys .... Z-matrix Internals
Initial Hessian          InHess   .... Almoef's Model

Convergence Tolerances:
Energy Change            TolE     ....  5.0000e-06 Eh
Max. Gradient            TolMAXG  ....  3.0000e-04 Eh/bohr
RMS Gradient             TolRMSG  ....  1.0000e-04 Eh/bohr
Max. Displacement        TolMAXD  ....  4.0000e-03 bohr
RMS Displacement         TolRMSD  ....  2.0000e-03 bohr
Strict Convergence                ....  False
------------------------------------------------------------------------------
                        ORCA OPTIMIZATION COORDINATE SETUP
------------------------------------------------------------------------------

The optimization will be done in new redundant internal coordinates
Making redundant internal coordinates   ...  (new redundants) done
Following TS mode number                ...     0
Evaluating the initial hessian          ...  (Is done on the fly) done
Evaluating the coordinates              ...  done
Calculating the B-matrix                .... done
Calculating the G-matrix                .... done
Diagonalizing the G-matrix              .... done
The first mode is                       ....    5
The number of degrees of freedom        ....   12

    -----------------------------------------------------------------
                    Redundant Internal Coordinates


    -----------------------------------------------------------------
         Definition                    Initial Value    d2E/dq (diagonal element)
    -----------------------------------------------------------------
      1. B(Cl  1,C   0)                  2.0796         0.000000   
      2. B(H   2,C   0)                  1.0817         0.000000   
      3. B(H   3,C   0)                  1.0817         0.000000   
      4. B(H   4,C   0)                  1.0817         0.000000   
      5. B(F   5,H   2)                  2.2586         0.000000   
      6. B(F   5,H   3)                  2.2591         0.000000   
      7. B(F   5,C   0)                  2.1000         0.000000   
      8. B(F   5,H   4)                  2.2589         0.000000   
      9. A(Cl  1,C   0,H   3)           96.0323         0.000000   
     10. A(H   2,C   0,H   3)          118.9096         0.000000   
     11. A(Cl  1,C   0,H   4)           96.0356         0.000000   
     12. A(H   2,C   0,H   4)          118.9137         0.000000   
     13. A(H   3,C   0,H   4)          118.9029         0.000000   
     14. A(H   2,C   0,F   5)           83.9513         0.000000   
     15. A(H   3,C   0,F   5)           83.9769         0.000000   
     16. A(H   4,C   0,F   5)           83.9646         0.000000   
     17. A(Cl  1,C   0,H   2)           96.0392         0.000000   
    -----------------------------------------------------------------

Number of atoms                         .... 6
Number of degrees of freedom            .... 17

         *************************************************************
         *                GEOMETRY OPTIMIZATION CYCLE   1            *
         *************************************************************
---------------------------------
CARTESIAN COORDINATES (ANGSTROEM)
---------------------------------
  C      0.000000    0.000000    0.000000
  Cl     2.079585    0.000000    0.000000
  H     -0.113807    1.075718    0.000000
  H     -0.113678   -0.537891    0.931620
  H     -0.113741   -0.537962   -0.931563
  F     -2.100000    0.000346   -0.000188

----------------------------
CARTESIAN COORDINATES (A.U.)
----------------------------
  NO LB      ZA    FRAG     MASS         X           Y           Z
   0 C     4.0000    0    12.011    0.000000    0.000000    0.000000
   1 Cl    7.0000    0    35.453    3.929847    0.000000    0.000000
   2 H     1.0000    0     1.008   -0.215065    2.032813    0.000000
   3 H     1.0000    0     1.008   -0.214821   -1.016466    1.760507
   4 H     1.0000    0     1.008   -0.214940   -1.016602   -1.760398
   5 F     7.0000    0    18.998   -3.968425    0.000653   -0.000356

--------------------------------
INTERNAL COORDINATES (ANGSTROEM)
--------------------------------
 C      0   0   0     0.000000000000     0.00000000     0.00000000
 Cl     1   0   0     2.079585242487     0.00000000     0.00000000
 H      1   2   0     1.081721867911    96.03923931     0.00000000
 H      1   2   3     1.081741782719    96.03225715   239.99909738
 H      1   2   3     1.081734493373    96.03564226   120.00574515
 F      1   2   3     2.100000027633   179.98926144    28.59469063

---------------------------
INTERNAL COORDINATES (A.U.)
---------------------------
 C      0   0   0     0.000000000000     0.00000000     0.00000000
 Cl     1   0   0     3.929846580445     0.00000000     0.00000000
 H      1   2   0     2.044158083426    96.03923931     0.00000000
 H      1   2   3     2.044195716959    96.03225715   239.99909738
 H      1   2   3     2.044181942091    96.03564226   120.00574515
 F      1   2   3     3.968424933453   179.98926144    28.59469063

----------------------------
SLATER BASIS SET DIM=  15
----------------------------
  0 C     2 shells
 l=0 nsto= 1
    2       1.565085000000        1.000000000000
 l=1 nsto= 1
    2       1.842345000000        1.000000000000
  1 Cl    2 shells
 l=0 nsto= 1
    3       2.246210000000        1.000000000000
 l=1 nsto= 1
    3       2.151010000000        1.000000000000
  2 H     1 shells
 l=0 nsto= 1
    1       0.967807000000        1.000000000000
  3 H     1 shells
 l=0 nsto= 1
    1       0.967807000000        1.000000000000
  4 H     1 shells
 l=0 nsto= 1
    1       0.967807000000        1.000000000000
  5 F     2 shells
 l=0 nsto= 1
    2       4.708555000000        1.000000000000
 l=1 nsto= 1
    2       2.491178000000        1.000000000000
------------------------------------------------------------------------------
                           ORCA NDO INTEGRAL CALCULATION
------------------------------------------------------------------------------

--------------
NDO PARAMETERS
--------------

Gamma integral treatment              ... MOPAC
Nuclear repulsuion treatment          ... AM1-style
Interaction factors:
s-s (sigma) =    1.0000
s-p (sigma) =    1.0000
s-d (sigma) =    1.0000
p-p (sigma) =    1.0000  p-p(pi) =    1.0000
p-d (sigma) =    1.0000  p-d(pi) =    1.0000
d-d (sigma) =    1.0000  d-d(pi) =    1.0000 d-d (delta) =    1.0000

--------------------------
Parameters for Element H :
--------------------------
 One-electron parameters (in eV)
  U(s)  =   -13.073321 Beta(s) =     5.626512 Neff(s) =     1.000000
 One-center electron repulsion parameters (in eV)
  G(s,s)=    14.794208
--------------------------
Parameters for Element C :
--------------------------
 One-electron parameters (in eV)
  U(s)  =   -47.270320 Beta(s) =    11.910015 Neff(s) =     2.000000
  U(p)  =   -36.266918 Beta(p) =     9.802755 Neff(p) =     2.000000 
 One-center electron repulsion parameters (in eV)
  G(s,s)=    11.200708
  G(s,p)=    10.265027 G(p,p)  =     9.627141
 Slater-Condon parameters (in eV)
 F2(p,p)=     7.3072 G1(s,p)=    6.8729
--------------------------
Parameters for Element F :
--------------------------
 One-electron parameters (in eV)
  U(s)  =  -110.435303 Beta(s) =    48.405939 Neff(s) =     2.000000
  U(p)  =  -105.685047 Beta(p) =    27.744660 Neff(p) =     5.000000 
 One-center electron repulsion parameters (in eV)
  G(s,s)=    10.496667
  G(s,p)=    16.073689 G(p,p)  =    14.551347
 Slater-Condon parameters (in eV)
 F2(p,p)=     1.6619 G1(s,p)=    2.1833
--------------------------
Parameters for Element Cl:
--------------------------
 One-electron parameters (in eV)
  U(s)  =  -100.626747 Beta(s) =    27.528560 Neff(s) =     2.000000
  U(p)  =   -53.614396 Beta(p) =    11.593922 Neff(p) =     5.000000 
 One-center electron repulsion parameters (in eV)
  G(s,s)=    16.013601
  G(s,p)=     8.048115 G(p,p)  =     7.510174
 Slater-Condon parameters (in eV)
 F2(p,p)=     0.0753 G1(s,p)=   10.4435

 Number of atoms                    ....    6
 Number of basis functions          ....   15

 Overlap integrals                  .... done
 One electron matrix                .... done
 Nuclear repulsion                  .... done
 Integral list                      .... done
 Electron-electron repulsion        .... done
-------------------------------------------------------------------------------
                                 ORCA SCF
-------------------------------------------------------------------------------

------------
SCF SETTINGS
------------
Hamiltonian:
 ZDO-Hamiltonian        Method          .... NDDO


General Settings:
 Integral files         IntName         .... FCl_TS_OPT
 Hartree-Fock type      HFTyp           .... RHF
 Total Charge           Charge          ....   -1
 Multiplicity           Mult            ....    1
 Number of Electrons    NEL             ....   22
 Basis Dimension        Dim             ....   15
 Nuclear Repulsion      ENuc            ....     32.1958376079 Eh

Convergence Acceleration:
 DIIS                   CNVDIIS         .... on
   Start iteration      DIISMaxIt       ....    12
   Startup error        DIISStart       ....  0.200000
   # of expansion vecs  DIISMaxEq       ....     5
   Bias factor          DIISBfac        ....   1.050
   Max. coefficient     DIISMaxC        ....  10.000
 Trust-Rad. Augm. Hess. CNVTRAH         .... off
 SOSCF                  CNVSOSCF        .... on
   Start iteration      SOSCFMaxIt      ....   150
   Startup grad/error   SOSCFStart      ....  0.003300
 Level Shifting         CNVShift        .... on
   Level shift para.    LevelShift      ....    0.2500
   Turn off err/grad.   ShiftErr        ....    0.0010
 Zerner damping         CNVZerner       .... off
 Static damping         CNVDamp         .... on
   Fraction old density DampFac         ....    0.7000
   Max. Damping (<1)    DampMax         ....    0.9800
   Min. Damping (>=0)   DampMin         ....    0.0000
   Turn off err/grad.   DampErr         ....    0.1000
 Fernandez-Rico         CNVRico         .... off

SCF Procedure:
 Maximum # iterations   MaxIter         ....   125
 SCF integral mode      SCFMode         .... Conventional
 Integral Buffer length BufferLength    .... 1048576
 Integral index format  IndFormat       ....     0
 Integral value format  ValFormat       ....     0
 Integral Storage       Thresh          ....  2.500e-11 Eh

Convergence Tolerance:
 Convergence Check Mode ConvCheckMode   .... Total+1el-Energy
 Convergence forced     ConvForced      .... 0
 Energy Change          TolE            ....  1.000e-08 Eh
 1-El. energy change                    ....  1.000e-05 Eh
 Orbital Gradient       TolG            ....  1.000e-05
 Orbital Rotation angle TolX            ....  1.000e-05
 DIIS Error             TolErr          ....  5.000e-07


Diagonalization of the overlap matrix:
Smallest eigenvalue                        ... 2.028e-01
Time for diagonalization                   ...    0.000 sec
Threshold for overlap eigenvalues          ... 1.000e-08
Number of eigenvalues below threshold      ... 0
Time for construction of square roots      ...    0.000 sec
Total time needed                          ...    0.000 sec

-------------------------------
INITIAL GUESS: EXTENDED HUECKEL
-------------------------------
EHT matrix was read from disk
EHT matrix was diagonalized
Initial density was built
                      ------------------
                      INITIAL GUESS DONE
                      ------------------

 InCore treatment chosen:
   Memory dedicated               ...    1024 MB
   Memory needed                  ...      0 MB
   Number of tiny    integrals    ...      31
   Number of small   integrals    ...      18
   Number of regular integrals    ...     318

--------------
SCF ITERATIONS
--------------
ITER       Energy         Delta-E        Max-DP      RMS-DP      [F,P]     Damp
  0    -33.8034163648   0.000000000000 0.04679094  0.00465117  0.3469687 0.7000
  1    -33.8184142644  -0.014997899593 0.03961331  0.00459091  0.2615542 0.7000
                               ***Turning on DIIS***
  2    -33.8303740680  -0.011959803596 0.03447118  0.00395028  0.1903172 0.7000
  3    -33.8425333701  -0.012159302116 0.03417527  0.00365002  0.1376862 0.7000
  4    -33.8527480088  -0.010214638631 0.10425158  0.01072720  0.0978234 0.0000
  5    -33.8658449949  -0.013096986131 0.01955773  0.00200205  0.0125778 0.0000
  6    -33.8729201710  -0.007075176128 0.01652813  0.00178228  0.0078523 0.0000
  7    -33.8701833302   0.002736840790 0.00867521  0.00094172  0.0037721 0.0000
                      *** Initiating the SOSCF procedure ***
                           *** Shutting down DIIS ***
                      *** Re-Reading the Fockian *** 
                      *** Removing any level shift *** 
ITER      Energy       Delta-E        Grad      Rot      Max-DP    RMS-DP
  8    -33.86761403   0.0025692978  0.001460  0.001460  0.003909  0.000408
  9    -33.86552568   0.0020883535  0.000527  0.001568  0.002294  0.000234
 10    -33.86552843  -0.0000027462  0.000207  0.001168  0.001727  0.000192
 11    -33.86552919  -0.0000007666  0.000027  0.000059  0.000101  0.000019
 12    -33.86552921  -0.0000000196  0.000010  0.000032  0.000056  0.000010
                 **** Energy Check signals convergence ****
              ***Rediagonalizing the Fockian in SOSCF/NRSCF***

               *****************************************************
               *                     SUCCESS                       *
               *           SCF CONVERGED AFTER  13 CYCLES          *
               *****************************************************


----------------
TOTAL SCF ENERGY
----------------

Total Energy       :          -33.86552921 Eh            -921.52790 eV

Components:
Nuclear Repulsion  :           32.19583761 Eh             876.09328 eV
Electronic Energy  :          -66.06136682 Eh           -1797.62118 eV
One Electron Energy:         -121.92723768 Eh           -3317.80881 eV
Two Electron Energy:           55.86587085 Eh            1520.18763 eV


---------------
SCF CONVERGENCE
---------------

  Last Energy change         ...   -3.2418e-09  Tolerance :   1.0000e-08
  Last MAX-Density change    ...    6.4465e-06  Tolerance :   1.0000e-07
  Last RMS-Density change    ...    1.2571e-06  Tolerance :   5.0000e-09
  Last Orbital Gradient      ...    1.6816e-06  Tolerance :   1.0000e-05
  Last Orbital Rotation      ...    3.8050e-06  Tolerance :   1.0000e-05

             **** THE GBW FILE WAS UPDATED (FCl_TS_OPT.gbw) ****
             **** DENSITY FCl_TS_OPT.scfp WAS UPDATED ****
             **** ENERGY FILE WAS UPDATED (FCl_TS_OPT.en.tmp) ****
             **** THE GBW FILE WAS UPDATED (FCl_TS_OPT.gbw) ****
             **** DENSITY FCl_TS_OPT.scfp WAS UPDATED ****
----------------
ORBITAL ENERGIES
----------------

  NO   OCC          E(Eh)            E(eV) 
   0   2.0000      -1.843823       -50.1730 
   1   2.0000      -0.867997       -23.6194 
   2   2.0000      -0.380254       -10.3472 
   3   2.0000      -0.380240       -10.3468 
   4   2.0000      -0.339591        -9.2407 
   5   2.0000      -0.276646        -7.5279 
   6   2.0000      -0.228275        -6.2117 
   7   2.0000      -0.228274        -6.2117 
   8   2.0000      -0.196954        -5.3594 
   9   2.0000      -0.196952        -5.3593 
  10   2.0000      -0.158743        -4.3196 
  11   0.0000       0.177582         4.8322 
  12   0.0000       0.284775         7.7491 
  13   0.0000       0.323299         8.7974 
  14   0.0000       0.323316         8.7979 

                    ********************************
                    * MULLIKEN POPULATION ANALYSIS *
                    ********************************

-----------------------
MULLIKEN ATOMIC CHARGES
-----------------------
   0 C :    0.124749
   1 Cl:   -0.653931
   2 H :    0.117103
   3 H :    0.117026
   4 H :    0.117061
   5 F :   -0.822008
Sum of atomic charges:   -1.0000000

--------------------------------
MULLIKEN REDUCED ORBITAL CHARGES
--------------------------------
  0 C s       :     1.559894  s :     1.559894
      pz      :     0.906838  p :     2.315358
      px      :     0.501659
      py      :     0.906861
  1 Cls       :     2.004029  s :     2.004029
      pz      :     2.000191  p :     5.649902
      px      :     1.649520
      py      :     2.000191
  2 H s       :     0.882897  s :     0.882897
  3 H s       :     0.882974  s :     0.882974
  4 H s       :     0.882939  s :     0.882939
  5 F s       :     1.990048  s :     1.990048
      pz      :     1.999379  p :     5.831959
      px      :     1.833202
      py      :     1.999378


                     *******************************
                     * LOEWDIN POPULATION ANALYSIS *
                     *******************************

----------------------
LOEWDIN ATOMIC CHARGES
----------------------
   0 C :    0.329639
   1 Cl:   -0.639830
   2 H :    0.043686
   3 H :    0.043629
   4 H :    0.043654
   5 F :   -0.820777

-------------------------------
LOEWDIN REDUCED ORBITAL CHARGES
-------------------------------
  0 C s       :     1.194666  s :     1.194666
      pz      :     0.975616  p :     2.475695
      px      :     0.524445
      py      :     0.975634
  1 Cls       :     1.993608  s :     1.993608
      pz      :     1.999977  p :     5.646223
      px      :     1.646268
      py      :     1.999977
  2 H s       :     0.956314  s :     0.956314
  3 H s       :     0.956371  s :     0.956371
  4 H s       :     0.956346  s :     0.956346
  5 F s       :     1.989961  s :     1.989961
      pz      :     1.999408  p :     5.830816
      px      :     1.832002
      py      :     1.999406


                      *****************************
                      * MAYER POPULATION ANALYSIS *
                      *****************************

  NA   - Mulliken gross atomic population
  ZA   - Total nuclear charge
  QA   - Mulliken gross atomic charge
  VA   - Mayer's total valence
  BVA  - Mayer's bonded valence
  FA   - Mayer's free valence

  ATOM       NA         ZA         QA         VA         BVA        FA
  0 C      5.8833     4.0000    -1.8833     1.9957    10.1304    -8.1347
  1 Cl     7.7986     7.0000    -0.7986     0.3615     1.3321    -0.9706
  2 H      1.5810     1.0000    -0.5810     0.6624     3.1778    -2.5154
  3 H      1.5811     1.0000    -0.5811     0.6623     3.1779    -2.5155
  4 H      1.5811     1.0000    -0.5811     0.6624     3.1778    -2.5155
  5 F      7.8616     7.0000    -0.8616     0.2581     0.4368    -0.1787

  Mayer bond orders larger than 0.100000
B(  0-C ,  1-Cl) :   1.1424 B(  0-C ,  2-H ) :   2.8749 B(  0-C ,  3-H ) :   2.8749 
B(  0-C ,  4-H ) :   2.8749 B(  0-C ,  5-F ) :   0.3632 B(  2-H ,  3-H ) :   0.1163 
B(  2-H ,  4-H ) :   0.1163 B(  3-H ,  4-H ) :   0.1163 

-------
TIMINGS
-------

Total SCF time: 0 days 0 hours 0 min 0 sec 

Total time                  ....       0.160 sec
Sum of individual times     ....       0.029 sec  ( 18.0%)

Fock matrix formation       ....       0.024 sec  ( 15.2%)
Diagonalization             ....       0.001 sec  (  0.6%)
Density matrix formation    ....       0.000 sec  (  0.0%)
Population analysis         ....       0.001 sec  (  0.7%)
Initial guess               ....       0.000 sec  (  0.1%)
Orbital Transformation      ....       0.000 sec  (  0.0%)
Orbital Orthonormalization  ....       0.000 sec  (  0.0%)
DIIS solution               ....       0.001 sec  (  0.9%)
SOSCF solution              ....       0.001 sec  (  0.4%)

Maximum memory used throughout the entire SCF-calculation: 222.8 MB

-------------------------   --------------------
FINAL SINGLE POINT ENERGY       -33.865529214590
-------------------------   --------------------

------------------------------------------------------------------------------
                          SCF GRADIENT FOR NDO METHODS
------------------------------------------------------------------------------

The cartesian gradient:
   1   C   :    0.005109839    0.000029617   -0.000004929
   2   Cl  :   -0.000000978   -0.000001492    0.000000832
   3   H   :   -0.000005078   -0.000010305    0.000002107
   4   H   :    0.000005673   -0.000011116    0.000002881
   5   H   :    0.000000212   -0.000011009    0.000001518
   6   F   :   -0.005109669    0.000004305   -0.000002409

Norm of the cartesian gradient     ...    0.007226376
RMS gradient                       ...    0.001703273
MAX gradient                       ...    0.005109839

----------------------------------------------------------------------------
                           ORCA NUMERICAL FREQUENCIES
----------------------------------------------------------------------------

Number of atoms                ... 6
Central differences            ... NOT used
Number of displacements        ... 18
Numerical increment            ... 5.000e-03 bohr
IR-spectrum generation         ... on
Raman-spectrum generation      ... off
Surface Crossing Hessian       ... off

The output will be reduced. Please look at the following files:
SCF program output             ... >FCl_TS_OPT.lastscf
Integral program output        ... >FCl_TS_OPT.lastint
Gradient program output        ... >FCl_TS_OPT.lastgrad
Dipole moment program output   ... >FCl_TS_OPT.lastmom
AutoCI program output          ... >FCl_TS_OPT.lastautoci

	<< Calculating on displaced geometry   1 (of  19) >>
	<< Calculating on displaced geometry   2 (of  19) >>
	<< Calculating on displaced geometry   3 (of  19) >>
	<< Calculating on displaced geometry   4 (of  19) >>
	<< Calculating on displaced geometry   5 (of  19) >>
	<< Calculating on displaced geometry   6 (of  19) >>
	<< Calculating on displaced geometry   7 (of  19) >>
	<< Calculating on displaced geometry   8 (of  19) >>
	<< Calculating on displaced geometry   9 (of  19) >>
	<< Calculating on displaced geometry  10 (of  19) >>
	<< Calculating on displaced geometry  11 (of  19) >>
	<< Calculating on displaced geometry  12 (of  19) >>
	<< Calculating on displaced geometry  13 (of  19) >>
	<< Calculating on displaced geometry  14 (of  19) >>
	<< Calculating on displaced geometry  15 (of  19) >>
	<< Calculating on displaced geometry  16 (of  19) >>
	<< Calculating on displaced geometry  17 (of  19) >>
	<< Calculating on displaced geometry  18 (of  19) >>
	<< Calculating on displaced geometry  19 (of  19) >>

-----------------------
VIBRATIONAL FREQUENCIES
-----------------------

Scaling factor for frequencies =  1.000000000 (already applied!)

   0:         0.00 cm**-1
   1:         0.00 cm**-1
   2:         0.00 cm**-1
   3:         0.00 cm**-1
   4:         0.00 cm**-1
   5:         0.00 cm**-1
   6:      -555.09 cm**-1 ***imaginary mode***
   7:       199.32 cm**-1
   8:       199.91 cm**-1
   9:       326.64 cm**-1
  10:       946.76 cm**-1
  11:       947.06 cm**-1
  12:      1080.06 cm**-1
  13:      1260.54 cm**-1
  14:      1261.74 cm**-1
  15:      3096.43 cm**-1
  16:      3183.99 cm**-1
  17:      3193.83 cm**-1


------------
NORMAL MODES
------------

These modes are the cartesian displacements weighted by the diagonal matrix
M(i,i)=1/sqrt(m[i]) where m[i] is the mass of the displaced atom
Thus, these vectors are normalized but *not* orthogonal

                  0          1          2          3          4          5    
      0       0.000000   0.000000   0.000000   0.000000   0.000000   0.000000
      1       0.000000   0.000000   0.000000   0.000000   0.000000   0.000000
      2       0.000000   0.000000   0.000000   0.000000   0.000000   0.000000
      3       0.000000   0.000000   0.000000   0.000000   0.000000   0.000000
      4       0.000000   0.000000   0.000000   0.000000   0.000000   0.000000
      5       0.000000   0.000000   0.000000   0.000000   0.000000   0.000000
      6       0.000000   0.000000   0.000000   0.000000   0.000000   0.000000
      7       0.000000   0.000000   0.000000   0.000000   0.000000   0.000000
      8       0.000000   0.000000   0.000000   0.000000   0.000000   0.000000
      9       0.000000   0.000000   0.000000   0.000000   0.000000   0.000000
     10       0.000000   0.000000   0.000000   0.000000   0.000000   0.000000
     11       0.000000   0.000000   0.000000   0.000000   0.000000   0.000000
     12       0.000000   0.000000   0.000000   0.000000   0.000000   0.000000
     13       0.000000   0.000000   0.000000   0.000000   0.000000   0.000000
     14       0.000000   0.000000   0.000000   0.000000   0.000000   0.000000
     15       0.000000   0.000000   0.000000   0.000000   0.000000   0.000000
     16       0.000000   0.000000   0.000000   0.000000   0.000000   0.000000
     17       0.000000   0.000000   0.000000   0.000000   0.000000   0.000000
                  6          7          8          9         10         11    
      0       0.874720   0.000241   0.000142   0.334853  -0.000008   0.000032
      1       0.001164  -0.430109  -0.115660  -0.003808   0.047455  -0.013549
      2       0.000979   0.114936  -0.432053  -0.004238   0.013417   0.047389
      3      -0.091830   0.000465   0.000953  -0.523764   0.000032  -0.000057
      4      -0.000276   0.090640   0.024274   0.000824  -0.014250   0.004052
      5      -0.000200  -0.024193   0.090941   0.000868  -0.004038  -0.014240
      6      -0.155684  -0.157352  -0.041589  -0.062799  -0.780083   0.222528
      7      -0.092233  -0.450651  -0.120591  -0.021397  -0.046182   0.013167
      8       0.001450   0.131562  -0.495178  -0.004572  -0.020330  -0.071400
      9      -0.155492   0.115631  -0.115178  -0.061285   0.197251  -0.785262
     10       0.048721  -0.478216  -0.145915   0.004626  -0.068235   0.007994
     11      -0.079414   0.101698  -0.467006  -0.019515  -0.026028  -0.049075
     12      -0.156550   0.042807   0.158961  -0.059052   0.581476   0.565149
     13       0.048305  -0.488969  -0.107316   0.004855  -0.062149   0.029721
     14       0.081569   0.143419  -0.453890   0.010795  -0.004020  -0.056022
     15      -0.356835  -0.001077  -0.001984   0.775434   0.000018  -0.000041
     16      -0.000475   0.178007   0.047659   0.001502   0.005959  -0.001696
     17      -0.000437  -0.047505   0.178581   0.001765   0.001726   0.005978
                 12         13         14         15         16         17    
      0      -0.002482  -0.000045  -0.000069   0.012656   0.000372  -0.000918
      1       0.000236  -0.080085  -0.052823  -0.005406   0.090457  -0.040966
      2       0.000068   0.052927  -0.079829  -0.005142  -0.041455  -0.089798
      3      -0.031273  -0.000012  -0.000016   0.001305   0.000035  -0.000088
      4      -0.000038   0.000623   0.000410   0.000053   0.000136  -0.000065
      5      -0.000002  -0.000432   0.000544   0.000046  -0.000032  -0.000209
      6       0.572523  -0.095165  -0.062351  -0.067095   0.084071  -0.034455
      7       0.063377  -0.076880  -0.051011   0.613779  -0.716502   0.291499
      8      -0.000188  -0.440278   0.667416  -0.001002  -0.007070  -0.014161
      9       0.574600   0.103007  -0.050060  -0.063764  -0.078675  -0.050136
     10      -0.032364   0.268163   0.639030  -0.294224  -0.330087  -0.224386
     11       0.054342   0.250643   0.323247   0.506696   0.587786   0.361962
     12       0.572831  -0.006612   0.114287  -0.055632  -0.010714   0.097891
     13      -0.031942   0.693893  -0.004075  -0.259316  -0.033355   0.422224
     14      -0.053976  -0.393814  -0.102288  -0.448152  -0.087973   0.729496
     15      -0.031329  -0.000014  -0.000027  -0.000541  -0.000018   0.000038
     16      -0.000029   0.002504   0.001648   0.000123  -0.000144   0.000058
     17      -0.000049  -0.001700   0.002319   0.000112   0.000125   0.000003


-----------
IR SPECTRUM
-----------

 Mode   freq       eps      Int      T**2         TX        TY        TZ
       cm**-1   L/(mol*cm) km/mol    a.u.
----------------------------------------------------------------------------
  7:    199.32   0.109954  555.66  0.172146  ( 0.000635  0.400925 -0.106791)
  8:    199.91   0.109435  553.04  0.170831  ( 0.001063  0.106290  0.399415)
  9:    326.64   0.000578    2.92  0.000552  ( 0.023429  0.001161  0.001277)
 10:    946.76   0.001477    7.46  0.000487  ( 0.000233  0.021216  0.006045)
 11:    947.06   0.001471    7.43  0.000485  (-0.000501 -0.006129  0.021139)
 12:   1080.06   0.401595  2029.49  0.116033  (-0.340636  0.000172  0.000039)
 13:   1260.54   0.055311  279.52  0.013693  (-0.000196 -0.097700  0.064401)
 14:   1261.74   0.054824  277.06  0.013560  (-0.000315 -0.064315 -0.097072)
 15:   3096.43   0.155366  785.16  0.015658  (-0.124851  0.006118  0.005744)
 16:   3183.99   0.108694  549.30  0.010653  (-0.003601 -0.093681  0.043174)
 17:   3193.83   0.108589  548.77  0.010610  ( 0.008746  0.042653  0.093350)

* The epsilon (eps) is given for a Dirac delta lineshape.
** The dipole moment derivative (T) already includes vibrational overlap.

The first frequency considered to be a vibration is 7
The total number of vibrations considered is 11


--------------------------
THERMOCHEMISTRY AT 298.15K
--------------------------

Temperature         ... 298.15 K
Pressure            ... 1.00 atm
Total Mass          ... 69.49 AMU

Throughout the following assumptions are being made:
  (1) The electronic state is orbitally nondegenerate
  (2) There are no thermally accessible electronically excited states
  (3) Hindered rotations indicated by low frequency modes are not
      treated as such but are treated as vibrations and this may
      cause some error
  (4) All equations used are the standard statistical mechanics
      equations for an ideal gas
  (5) All vibrations are strictly harmonic

freq.     199.32  E(vib)   ...       0.35 
freq.     199.91  E(vib)   ...       0.35 
freq.     326.64  E(vib)   ...       0.24 
freq.     946.76  E(vib)   ...       0.03 
freq.     947.06  E(vib)   ...       0.03 
freq.    1080.06  E(vib)   ...       0.02 
freq.    1260.54  E(vib)   ...       0.01 
freq.    1261.74  E(vib)   ...       0.01 
freq.    3096.43  E(vib)   ...       0.00 
freq.    3183.99  E(vib)   ...       0.00 
freq.    3193.83  E(vib)   ...       0.00 

------------
INNER ENERGY
------------

The inner energy is: U= E(el) + E(ZPE) + E(vib) + E(rot) + E(trans)
    E(el)   - is the total energy from the electronic structure calculation
              = E(kin-el) + E(nuc-el) + E(el-el) + E(nuc-nuc)
    E(ZPE)  - the the zero temperature vibrational energy from the frequency calculation
    E(vib)  - the the finite temperature correction to E(ZPE) due to population
              of excited vibrational states
    E(rot)  - is the rotational thermal energy
    E(trans)- is the translational thermal energy

Summary of contributions to the inner energy U:
Electronic energy                ...    -33.86552921 Eh
Zero point energy                ...      0.03575878 Eh      22.44 kcal/mol
Thermal vibrational correction   ...      0.00165418 Eh       1.04 kcal/mol
Thermal rotational correction    ...      0.00141627 Eh       0.89 kcal/mol
Thermal translational correction ...      0.00141627 Eh       0.89 kcal/mol
-----------------------------------------------------------------------
Total thermal energy                    -33.82528371 Eh


Summary of corrections to the electronic energy:
(perhaps to be used in another calculation)
Total thermal correction                  0.00448673 Eh       2.82 kcal/mol
Non-thermal (ZPE) correction              0.03575878 Eh      22.44 kcal/mol
-----------------------------------------------------------------------
Total correction                          0.04024551 Eh      25.25 kcal/mol


--------
ENTHALPY
--------

The enthalpy is H = U + kB*T
                kB is Boltzmann's constant
Total free energy                 ...    -33.82528371 Eh 
Thermal Enthalpy correction       ...      0.00094421 Eh       0.59 kcal/mol
-----------------------------------------------------------------------
Total Enthalpy                    ...    -33.82433950 Eh


Note: Only C1 symmetry has been detected, increase convergence thresholds 
      if your molecule has a higher symmetry. Symmetry factor of 1.0 is   
      used for the rotational entropy correction. 
 

Note: Rotational entropy computed according to Herzberg 
Infrared and Raman Spectra, Chapter V,1, Van Nostrand Reinhold, 1945 
Point Group:  C1, Symmetry Number:   1  
Rotational constants in cm-1:     4.817298     0.075678     0.075678 

Vibrational entropy computed according to the QRRHO of S. Grimme
Chem.Eur.J. 2012 18 9955


-------
ENTROPY
-------

The entropy contributions are T*S = T*(S(el)+S(vib)+S(rot)+S(trans))
     S(el)   - electronic entropy
     S(vib)  - vibrational entropy
     S(rot)  - rotational entropy
     S(trans)- translational entropy
The entropies will be listed as multiplied by the temperature to get
units of energy

Electronic entropy                ...      0.00000000 Eh      0.00 kcal/mol
Vibrational entropy               ...      0.00281323 Eh      1.77 kcal/mol
Rotational entropy                ...      0.01120576 Eh      7.03 kcal/mol
Translational entropy             ...      0.01835566 Eh     11.52 kcal/mol
-----------------------------------------------------------------------
Final entropy term                ...      0.03237465 Eh     20.32 kcal/mol

In case the symmetry of your molecule has not been determined correctly
or in case you have a reason to use a different symmetry number we print 
out the resulting rotational entropy values for sn=1,12 :
 --------------------------------------------------------
|  sn= 1 | S(rot)=       0.01120576 Eh      7.03 kcal/mol|
|  sn= 2 | S(rot)=       0.01055131 Eh      6.62 kcal/mol|
|  sn= 3 | S(rot)=       0.01016847 Eh      6.38 kcal/mol|
|  sn= 4 | S(rot)=       0.00989685 Eh      6.21 kcal/mol|
|  sn= 5 | S(rot)=       0.00968616 Eh      6.08 kcal/mol|
|  sn= 6 | S(rot)=       0.00951402 Eh      5.97 kcal/mol|
|  sn= 7 | S(rot)=       0.00936847 Eh      5.88 kcal/mol|
|  sn= 8 | S(rot)=       0.00924239 Eh      5.80 kcal/mol|
|  sn= 9 | S(rot)=       0.00913118 Eh      5.73 kcal/mol|
|  sn=10 | S(rot)=       0.00903171 Eh      5.67 kcal/mol|
|  sn=11 | S(rot)=       0.00894172 Eh      5.61 kcal/mol|
|  sn=12 | S(rot)=       0.00885956 Eh      5.56 kcal/mol|
 --------------------------------------------------------


-------------------
GIBBS FREE ENERGY
-------------------

The Gibbs free energy is G = H - T*S

Total enthalpy                    ...    -33.82433950 Eh 
Total entropy correction          ...     -0.03237465 Eh    -20.32 kcal/mol
-----------------------------------------------------------------------
Final Gibbs free energy         ...    -33.85671415 Eh

For completeness - the Gibbs free energy minus the electronic energy
G-E(el)                           ...      0.00881506 Eh      5.53 kcal/mol


Actual Hessian File stored as FCl_TS_OPT.001.hess
------------------------------------------------------------------------------
                         ORCA GEOMETRY RELAXATION STEP
------------------------------------------------------------------------------

Reading the OPT-File                    .... done
Getting information on internals        .... done
Copying old internal coords+grads       .... done
Making the new internal coordinates     .... (new redundants).... done
Validating the new internal coordinates .... (new redundants).... done
Calculating the B-matrix                .... done
Calculating the G,G- and P matrices     .... done
Transforming gradient to internals      .... done
Projecting the internal gradient        .... done
Number of atoms                         ....   6
Number of internal coordinates          ....  17
Current Energy                          ....   -33.865529215 Eh
Current gradient norm                   ....     0.007226376 Eh/bohr
Maximum allowed component of the step   ....  0.300
Current trust radius                    ....  0.300
Evaluating the initial hessian          ....  (read) 
(Reading Exact Hessian)...  
InHessName: FCl_TS_OPT.hess	The file <FCl_TS_OPT.hess> is opened as a .hess file
done
done
Diagonalizing the Hessian               .... done
Dimension of the hessian                .... 17
Lowest eigenvalues of the non projected Hessian:
 -0.035224496 -0.000000000 -0.000000000 -0.000000000 -0.000000000
done
Projecting the Hessian                  .... done
Diagonalizing the Hessian               .... done
Dimension of the hessian                ....  17
Lowest eigenvalues of the Hessian:
 -0.035224496  0.010758798  0.010804776  0.018233913  0.075228283
Hessian has   1 negative eigenvalues
Taking P-RFO step
Searching for lambda that maximizes along the lowest mode
TS mode is mode number   0 with eigenvalue  -0.03522450 and components:
   1.    0.46652092
   2.   -0.00068149
   3.   -0.00069375
   4.   -0.00092200
   5.   -0.14233268
   6.   -0.14232190
   7.   -0.63827079
   8.   -0.14221916
   9.   -0.22181389
  10.    0.07944365
  11.   -0.22162441
  12.    0.07957032
  13.    0.07947113
  14.    0.22177627
  15.    0.22182639
  16.    0.22190610
  17.   -0.22207045

Lambda that maximizes along the TS mode:       0.00029942
Searching for lambda that minimizes along all other modes
In cycle   1: lambdaN =  -0.00007519   step =   0.00007519
In cycle   2: lambdaN =  -0.00007519   step =   0.00000000
Lambda that minimizes along all other modes:  -0.00007519
The final length of the internal step   ....       0.1083
Converting the step to cartesian space:
 Initial RMS(Int)=    0.0262580927
Transforming coordinates:
 Iter   0:  RMS(Cart)=    0.0127130625 RMS(Int)=    0.0263496089
 Iter   1:  RMS(Cart)=    0.0003400175 RMS(Int)=    0.0003624711
 Iter   2:  RMS(Cart)=    0.0000048240 RMS(Int)=    0.0000057582
 Iter   3:  RMS(Cart)=    0.0000001489 RMS(Int)=    0.0000001717
 Iter   4:  RMS(Cart)=    0.0000000034 RMS(Int)=    0.0000000036
done
Storing new coordinates                 .... done

                                .--------------------.
          ----------------------|Geometry convergence|-------------------------
          Item                value                   Tolerance       Converged
          ---------------------------------------------------------------------
          RMS gradient        0.0009180871            0.0001000000      NO
          MAX gradient        0.0028046397            0.0003000000      NO
          RMS step            0.0262580927            0.0020000000      NO
          MAX step            0.0642235304            0.0040000000      NO
          ........................................................
          Max(Bonds)      0.0340      Max(Angles)    1.62
          Max(Dihed)        0.00      Max(Improp)    0.00
          ---------------------------------------------------------------------

The optimization has not yet converged - more geometry cycles are needed


    ---------------------------------------------------------------------------
                         Redundant Internal Coordinates
                            (Angstroem and degrees)

        Definition                    Value    dE/dq     Step     New-Value  comp.(TS mode)
    ----------------------------------------------------------------------------
     1. B(Cl  1,C   0)                2.0796 -0.000001 -0.0340    2.0456          0.47
     2. B(H   2,C   0)                1.0817 -0.000341  0.0006    1.0824   
     3. B(H   3,C   0)                1.0817 -0.000327  0.0006    1.0823   
     4. B(H   4,C   0)                1.0817 -0.000329  0.0006    1.0824   
     5. B(F   5,H   2)                2.2586  0.000869 -0.0072    2.2514   
     6. B(F   5,H   3)                2.2591  0.000878 -0.0077    2.2514   
     7. B(F   5,C   0)                2.1000  0.002805  0.0232    2.1232          0.64
     8. B(F   5,H   4)                2.2589  0.000874 -0.0076    2.2513   
     9. A(Cl  1,C   0,H   3)           96.03  0.000771    1.62     97.65   
    10. A(H   2,C   0,H   3)          118.91 -0.000274   -0.58    118.33   
    11. A(Cl  1,C   0,H   4)           96.04  0.000775    1.61     97.65   
    12. A(H   2,C   0,H   4)          118.91 -0.000269   -0.59    118.33   
    13. A(H   3,C   0,H   4)          118.90 -0.000291   -0.57    118.34   
    14. A(H   2,C   0,F   5)           83.95 -0.000776   -1.60     82.35   
    15. A(H   3,C   0,F   5)           83.98 -0.000774   -1.62     82.35   
    16. A(H   4,C   0,F   5)           83.96 -0.000776   -1.62     82.35   
    17. A(Cl  1,C   0,H   2)           96.04  0.000781    1.61     97.65   
    ----------------------------------------------------------------------------

         *************************************************************
         *                GEOMETRY OPTIMIZATION CYCLE   2            *
         *************************************************************
---------------------------------
CARTESIAN COORDINATES (ANGSTROEM)
---------------------------------
  C      0.024586    0.000038    0.000010
  Cl     2.070186   -0.000141    0.000004
  H     -0.119207    1.072804   -0.000034
  H     -0.119311   -0.536265    0.929066
  H     -0.119281   -0.536315   -0.929038
  F     -2.098615    0.000090   -0.000140

----------------------------
CARTESIAN COORDINATES (A.U.)
----------------------------
  NO LB      ZA    FRAG     MASS         X           Y           Z
   0 C     4.0000    0    12.011    0.046461    0.000073    0.000018
   1 Cl    7.0000    0    35.453    3.912084   -0.000267    0.000008
   2 H     1.0000    0     1.008   -0.225268    2.027306   -0.000063
   3 H     1.0000    0     1.008   -0.225465   -1.013395    1.755681
   4 H     1.0000    0     1.008   -0.225408   -1.013489   -1.755627
   5 F     7.0000    0    18.998   -3.965808    0.000170   -0.000264

--------------------------------
INTERNAL COORDINATES (ANGSTROEM)
--------------------------------
 C      0   0   0     0.000000000000     0.00000000     0.00000000
 Cl     1   0   0     2.045599613967     0.00000000     0.00000000
 H      1   2   0     1.082359802513    97.63942091     0.00000000
 H      1   2   3     1.082346767787    97.63768056   240.00110498
 H      1   2   3     1.082359681921    97.63570618   119.99674175
 F      1   2   3     2.123201321645   179.99445122   130.99699641

---------------------------
INTERNAL COORDINATES (A.U.)
---------------------------
 C      0   0   0     0.000000000000     0.00000000     0.00000000
 Cl     1   0   0     3.865623050053     0.00000000     0.00000000
 H      1   2   0     2.045363605115    97.63942091     0.00000000
 H      1   2   3     2.045338973052    97.63768056   240.00110498
 H      1   2   3     2.045363377228    97.63570618   119.99674175
 F      1   2   3     4.012269025089   179.99445122   130.99699641

------------------------------------------------------------------------------
                           ORCA NDO INTEGRAL CALCULATION
------------------------------------------------------------------------------

--------------
NDO PARAMETERS
--------------

Gamma integral treatment              ... MOPAC
Nuclear repulsuion treatment          ... AM1-style
Interaction factors:
s-s (sigma) =    1.0000
s-p (sigma) =    1.0000
s-d (sigma) =    1.0000
p-p (sigma) =    1.0000  p-p(pi) =    1.0000
p-d (sigma) =    1.0000  p-d(pi) =    1.0000
d-d (sigma) =    1.0000  d-d(pi) =    1.0000 d-d (delta) =    1.0000

--------------------------
Parameters for Element H :
--------------------------
 One-electron parameters (in eV)
  U(s)  =   -13.073321 Beta(s) =     5.626512 Neff(s) =     1.000000
 One-center electron repulsion parameters (in eV)
  G(s,s)=    14.794208
--------------------------
Parameters for Element C :
--------------------------
 One-electron parameters (in eV)
  U(s)  =   -47.270320 Beta(s) =    11.910015 Neff(s) =     2.000000
  U(p)  =   -36.266918 Beta(p) =     9.802755 Neff(p) =     2.000000 
 One-center electron repulsion parameters (in eV)
  G(s,s)=    11.200708
  G(s,p)=    10.265027 G(p,p)  =     9.627141
 Slater-Condon parameters (in eV)
 F2(p,p)=     7.3072 G1(s,p)=    6.8729
--------------------------
Parameters for Element F :
--------------------------
 One-electron parameters (in eV)
  U(s)  =  -110.435303 Beta(s) =    48.405939 Neff(s) =     2.000000
  U(p)  =  -105.685047 Beta(p) =    27.744660 Neff(p) =     5.000000 
 One-center electron repulsion parameters (in eV)
  G(s,s)=    10.496667
  G(s,p)=    16.073689 G(p,p)  =    14.551347
 Slater-Condon parameters (in eV)
 F2(p,p)=     1.6619 G1(s,p)=    2.1833
--------------------------
Parameters for Element Cl:
--------------------------
 One-electron parameters (in eV)
  U(s)  =  -100.626747 Beta(s) =    27.528560 Neff(s) =     2.000000
  U(p)  =   -53.614396 Beta(p) =    11.593922 Neff(p) =     5.000000 
 One-center electron repulsion parameters (in eV)
  G(s,s)=    16.013601
  G(s,p)=     8.048115 G(p,p)  =     7.510174
 Slater-Condon parameters (in eV)
 F2(p,p)=     0.0753 G1(s,p)=   10.4435

 Number of atoms                    ....    6
 Number of basis functions          ....   15

 Overlap integrals                  .... done
 One electron matrix                .... done
 Nuclear repulsion                  .... done
 Integral list                      .... done
 Electron-electron repulsion        .... done

Diagonalization of the overlap matrix:
Smallest eigenvalue                        ... 2.025e-01
Time for diagonalization                   ...    0.000 sec
Threshold for overlap eigenvalues          ... 1.000e-08
Number of eigenvalues below threshold      ... 0
Time for construction of square roots      ...    0.000 sec
Total time needed                          ...    0.000 sec


 InCore treatment chosen:
   Memory dedicated               ...    1024 MB
   Memory needed                  ...      0 MB
   Number of tiny    integrals    ...      35
   Number of small   integrals    ...      51
   Number of regular integrals    ...     339

--------------
SCF ITERATIONS
--------------
ITER       Energy         Delta-E        Max-DP      RMS-DP      [F,P]     Damp
  0    -33.8646389160   0.000000000000 0.00350834  0.00054201  0.0126173 0.7000
                      *** Initiating the SOSCF procedure ***
                      *** Re-Reading the Fockian *** 
                      *** Removing any level shift *** 
ITER      Energy       Delta-E        Grad      Rot      Max-DP    RMS-DP
  1    -33.86475862  -0.0001197085  0.002609  0.002609  0.014269  0.002062
  2    -33.86521378  -0.0004551539  0.002693  0.007991  0.011171  0.001497
  3    -33.86535821  -0.0001444341  0.001253  0.007573  0.011477  0.001524
  4    -33.86540846  -0.0000502468  0.000150  0.000277  0.000301  0.000065
  5    -33.86540874  -0.0000002832  0.000050  0.000213  0.000263  0.000050
  6    -33.86540881  -0.0000000723  0.000018  0.000026  0.000045  0.000008
                 **** Energy Check signals convergence ****
              ***Rediagonalizing the Fockian in SOSCF/NRSCF***

               *****************************************************
               *                     SUCCESS                       *
               *           SCF CONVERGED AFTER   7 CYCLES          *
               *****************************************************

Total Energy       :          -33.86540882 Eh            -921.52462 eV
  Last Energy change         ...   -3.1663e-09  Tolerance :   1.0000e-08
  Last MAX-Density change    ...    2.0440e-05  Tolerance :   1.0000e-07
             **** THE GBW FILE WAS UPDATED (FCl_TS_OPT.gbw) ****
             **** DENSITY FCl_TS_OPT.scfp WAS UPDATED ****
             **** ENERGY FILE WAS UPDATED (FCl_TS_OPT.en.tmp) ****
             **** THE GBW FILE WAS UPDATED (FCl_TS_OPT.gbw) ****
             **** DENSITY FCl_TS_OPT.scfp WAS UPDATED ****
Total SCF time: 0 days 0 hours 0 min 0 sec 

Maximum memory used throughout the entire SCF-calculation: 222.8 MB

-------------------------   --------------------
FINAL SINGLE POINT ENERGY       -33.865408817986
-------------------------   --------------------

------------------------------------------------------------------------------
                          SCF GRADIENT FOR NDO METHODS
------------------------------------------------------------------------------

The cartesian gradient:
   1   C   :    0.000476829    0.000007647    0.000010938
   2   Cl  :   -0.000262403   -0.000001643   -0.000001453
   3   H   :    0.000014613   -0.000063450   -0.000001330
   4   H   :    0.000018338    0.000030299   -0.000054435
   5   H   :    0.000018013    0.000027701    0.000047266
   6   F   :   -0.000265390   -0.000000554   -0.000000986

Norm of the cartesian gradient     ...    0.000615323
RMS gradient                       ...    0.000145033
MAX gradient                       ...    0.000476829
------------------------------------------------------------------------------
                         ORCA GEOMETRY RELAXATION STEP
------------------------------------------------------------------------------

Reading the OPT-File                    .... done
Getting information on internals        .... done
Copying old internal coords+grads       .... done
Making the new internal coordinates     .... (new redundants).... done
Validating the new internal coordinates .... (new redundants).... done
Calculating the B-matrix                .... done
Calculating the G,G- and P matrices     .... done
Transforming gradient to internals      .... done
Projecting the internal gradient        .... done
Number of atoms                         ....   6
Number of internal coordinates          ....  17
Current Energy                          ....   -33.865408818 Eh
Current gradient norm                   ....     0.000615323 Eh/bohr
Maximum allowed component of the step   ....  0.300
Current trust radius                    ....  0.300
Updating the Hessian (Bofill)          .... Diagonalizing the Hessian               .... done
Dimension of the hessian                ....  17
Lowest eigenvalues of the Hessian:
 -0.032780582  0.010758631  0.010804764  0.017666829  0.075228316
Hessian has   1 negative eigenvalues
Taking P-RFO step
Searching for lambda that maximizes along the lowest mode
TS mode is mode number   0 with eigenvalue  -0.03278058 and components:
   1.   -0.45942508
   2.    0.00205963
   3.    0.00206434
   4.    0.00210845
   5.    0.14506457
   6.    0.14495526
   7.    0.64072648
   8.    0.14500636
   9.    0.22041700
  10.   -0.08894155
  11.    0.22049831
  12.   -0.08888022
  13.   -0.08886672
  14.   -0.22041868
  15.   -0.22048453
  16.   -0.22045322
  17.    0.22044146

Lambda that maximizes along the TS mode:       0.00000236
Searching for lambda that minimizes along all other modes
In cycle   1: lambdaN =  -0.00000020   step =   0.00000020
In cycle   2: lambdaN =  -0.00000020   step =   0.00000000
Lambda that minimizes along all other modes:  -0.00000020
The final length of the internal step   ....       0.0086
Converting the step to cartesian space:
 Initial RMS(Int)=    0.0020743663
Transforming coordinates:
 Iter   0:  RMS(Cart)=    0.0010242652 RMS(Int)=    0.0020744871
 Iter   1:  RMS(Cart)=    0.0000018143 RMS(Int)=    0.0000019530
 Iter   2:  RMS(Cart)=    0.0000000019 RMS(Int)=    0.0000000022
done
Storing new coordinates                 .... done

                                .--------------------.
          ----------------------|Geometry convergence|-------------------------
          Item                value                   Tolerance       Converged
          ---------------------------------------------------------------------
          Energy change       0.0001203966            0.0000050000      NO
          RMS gradient        0.0000843872            0.0001000000      YES
          MAX gradient        0.0002624032            0.0003000000      YES
          RMS step            0.0020743663            0.0020000000      NO
          MAX step            0.0056536705            0.0040000000      NO
          ........................................................
          Max(Bonds)      0.0030      Max(Angles)    0.12
          Max(Dihed)        0.00      Max(Improp)    0.00
          ---------------------------------------------------------------------

The optimization has not yet converged - more geometry cycles are needed


    ---------------------------------------------------------------------------
                         Redundant Internal Coordinates
                            (Angstroem and degrees)

        Definition                    Value    dE/dq     Step     New-Value  comp.(TS mode)
    ----------------------------------------------------------------------------
     1. B(Cl  1,C   0)                2.0456 -0.000262 -0.0016    2.0440          0.46
     2. B(H   2,C   0)                1.0824 -0.000081  0.0001    1.0825   
     3. B(H   3,C   0)                1.0823 -0.000080  0.0001    1.0825   
     4. B(H   4,C   0)                1.0824 -0.000072  0.0001    1.0825   
     5. B(F   5,H   2)                2.2514  0.000044  0.0006    2.2520   
     6. B(F   5,H   3)                2.2514  0.000045  0.0005    2.2519   
     7. B(F   5,C   0)                2.1232  0.000148  0.0030    2.1262          0.64
     8. B(F   5,H   4)                2.2513  0.000044  0.0006    2.2519   
     9. A(Cl  1,C   0,H   3)           97.64  0.000031    0.12     97.76   
    10. A(H   2,C   0,H   3)          118.26 -0.000012   -0.05    118.21   
    11. A(Cl  1,C   0,H   4)           97.64  0.000024    0.12     97.76   
    12. A(H   2,C   0,H   4)          118.26 -0.000015   -0.05    118.21   
    13. A(H   3,C   0,H   4)          118.27 -0.000014   -0.05    118.22   
    14. A(H   2,C   0,F   5)           82.36 -0.000030   -0.12     82.25   
    15. A(H   3,C   0,F   5)           82.36 -0.000030   -0.12     82.24   
    16. A(H   4,C   0,F   5)           82.36 -0.000032   -0.12     82.24   
    17. A(Cl  1,C   0,H   2)           97.64  0.000036    0.12     97.76   
    ----------------------------------------------------------------------------

         *************************************************************
         *                GEOMETRY OPTIMIZATION CYCLE   3            *
         *************************************************************
---------------------------------
CARTESIAN COORDINATES (ANGSTROEM)
---------------------------------
  C      0.026465    0.000027   -0.000013
  Cl     2.070436   -0.000119    0.000033
  H     -0.119518    1.072610   -0.000045
  H     -0.119670   -0.536172    0.928884
  H     -0.119631   -0.536225   -0.928885
  F     -2.099725    0.000091   -0.000105

----------------------------
CARTESIAN COORDINATES (A.U.)
----------------------------
  NO LB      ZA    FRAG     MASS         X           Y           Z
   0 C     4.0000    0    12.011    0.050012    0.000050   -0.000024
   1 Cl    7.0000    0    35.453    3.912557   -0.000225    0.000062
   2 H     1.0000    0     1.008   -0.225857    2.026940   -0.000085
   3 H     1.0000    0     1.008   -0.226143   -1.013219    1.755337
   4 H     1.0000    0     1.008   -0.226069   -1.013319   -1.755339
   5 F     7.0000    0    18.998   -3.967904    0.000171   -0.000198

--------------------------------
INTERNAL COORDINATES (ANGSTROEM)
--------------------------------
 C      0   0   0     0.000000000000     0.00000000     0.00000000
 Cl     1   0   0     2.043970479573     0.00000000     0.00000000
 H      1   2   0     1.082472627584    97.75468962     0.00000000
 H      1   2   3     1.082457702600    97.75566002   240.00269030
 H      1   2   3     1.082457397636    97.75577936   119.99749612
 F      1   2   3     2.126190023338   179.99735621   152.89616966

---------------------------
INTERNAL COORDINATES (A.U.)
---------------------------
 C      0   0   0     0.000000000000     0.00000000     0.00000000
 Cl     1   0   0     3.862544432213     0.00000000     0.00000000
 H      1   2   0     2.045576813601    97.75468962     0.00000000
 H      1   2   3     2.045548609467    97.75566002   240.00269030
 H      1   2   3     2.045548033169    97.75577936   119.99749612
 F      1   2   3     4.017916852784   179.99735621   152.89616966

------------------------------------------------------------------------------
                           ORCA NDO INTEGRAL CALCULATION
------------------------------------------------------------------------------

--------------
NDO PARAMETERS
--------------

Gamma integral treatment              ... MOPAC
Nuclear repulsuion treatment          ... AM1-style
Interaction factors:
s-s (sigma) =    1.0000
s-p (sigma) =    1.0000
s-d (sigma) =    1.0000
p-p (sigma) =    1.0000  p-p(pi) =    1.0000
p-d (sigma) =    1.0000  p-d(pi) =    1.0000
d-d (sigma) =    1.0000  d-d(pi) =    1.0000 d-d (delta) =    1.0000

--------------------------
Parameters for Element H :
--------------------------
 One-electron parameters (in eV)
  U(s)  =   -13.073321 Beta(s) =     5.626512 Neff(s) =     1.000000
 One-center electron repulsion parameters (in eV)
  G(s,s)=    14.794208
--------------------------
Parameters for Element C :
--------------------------
 One-electron parameters (in eV)
  U(s)  =   -47.270320 Beta(s) =    11.910015 Neff(s) =     2.000000
  U(p)  =   -36.266918 Beta(p) =     9.802755 Neff(p) =     2.000000 
 One-center electron repulsion parameters (in eV)
  G(s,s)=    11.200708
  G(s,p)=    10.265027 G(p,p)  =     9.627141
 Slater-Condon parameters (in eV)
 F2(p,p)=     7.3072 G1(s,p)=    6.8729
--------------------------
Parameters for Element F :
--------------------------
 One-electron parameters (in eV)
  U(s)  =  -110.435303 Beta(s) =    48.405939 Neff(s) =     2.000000
  U(p)  =  -105.685047 Beta(p) =    27.744660 Neff(p) =     5.000000 
 One-center electron repulsion parameters (in eV)
  G(s,s)=    10.496667
  G(s,p)=    16.073689 G(p,p)  =    14.551347
 Slater-Condon parameters (in eV)
 F2(p,p)=     1.6619 G1(s,p)=    2.1833
--------------------------
Parameters for Element Cl:
--------------------------
 One-electron parameters (in eV)
  U(s)  =  -100.626747 Beta(s) =    27.528560 Neff(s) =     2.000000
  U(p)  =   -53.614396 Beta(p) =    11.593922 Neff(p) =     5.000000 
 One-center electron repulsion parameters (in eV)
  G(s,s)=    16.013601
  G(s,p)=     8.048115 G(p,p)  =     7.510174
 Slater-Condon parameters (in eV)
 F2(p,p)=     0.0753 G1(s,p)=   10.4435

 Number of atoms                    ....    6
 Number of basis functions          ....   15

 Overlap integrals                  .... done
 One electron matrix                .... done
 Nuclear repulsion                  .... done
 Integral list                      .... done
 Electron-electron repulsion        .... done

Diagonalization of the overlap matrix:
Smallest eigenvalue                        ... 2.025e-01
Time for diagonalization                   ...    0.000 sec
Threshold for overlap eigenvalues          ... 1.000e-08
Number of eigenvalues below threshold      ... 0
Time for construction of square roots      ...    0.000 sec
Total time needed                          ...    0.000 sec


 InCore treatment chosen:
   Memory dedicated               ...    1024 MB
   Memory needed                  ...      0 MB
   Number of tiny    integrals    ...      43
   Number of small   integrals    ...      42
   Number of regular integrals    ...     348

--------------
SCF ITERATIONS
--------------
ITER       Energy         Delta-E        Max-DP      RMS-DP      [F,P]     Damp
                      *** Initiating the SOSCF procedure ***
                      *** Re-Reading the Fockian *** 
                      *** Removing any level shift *** 
ITER      Energy       Delta-E        Grad      Rot      Max-DP    RMS-DP
  0    -33.86540328 -33.8654032781  0.000450  0.000450  0.001004  0.000137
  1    -33.86540577  -0.0000024899  0.000276  0.000830  0.001230  0.000148
  2    -33.86540717  -0.0000014004  0.000123  0.000746  0.001139  0.000146
  3    -33.86540764  -0.0000004711  0.000020  0.000033  0.000038  0.000008
  4    -33.86540764  -0.0000000043  0.000005  0.000020  0.000024  0.000005
                 **** Energy Check signals convergence ****
              ***Rediagonalizing the Fockian in SOSCF/NRSCF***

               *****************************************************
               *                     SUCCESS                       *
               *           SCF CONVERGED AFTER   5 CYCLES          *
               *****************************************************

Total Energy       :          -33.86540764 Eh            -921.52459 eV
  Last Energy change         ...   -8.3411e-10  Tolerance :   1.0000e-08
  Last MAX-Density change    ...    5.7760e-06  Tolerance :   1.0000e-07
             **** THE GBW FILE WAS UPDATED (FCl_TS_OPT.gbw) ****
             **** DENSITY FCl_TS_OPT.scfp WAS UPDATED ****
             **** ENERGY FILE WAS UPDATED (FCl_TS_OPT.en.tmp) ****
             **** THE GBW FILE WAS UPDATED (FCl_TS_OPT.gbw) ****
             **** DENSITY FCl_TS_OPT.scfp WAS UPDATED ****
Total SCF time: 0 days 0 hours 0 min 0 sec 

Maximum memory used throughout the entire SCF-calculation: 222.8 MB

-------------------------   --------------------
FINAL SINGLE POINT ENERGY       -33.865407644648
-------------------------   --------------------

------------------------------------------------------------------------------
                          SCF GRADIENT FOR NDO METHODS
------------------------------------------------------------------------------

The cartesian gradient:
   1   C   :    0.000046428   -0.000000061    0.000000230
   2   Cl  :   -0.000011592    0.000000436   -0.000000105
   3   H   :   -0.000002713   -0.000006914   -0.000000014
   4   H   :   -0.000002064    0.000003461   -0.000006033
   5   H   :   -0.000002497    0.000003590    0.000006228
   6   F   :   -0.000027562   -0.000000513   -0.000000306

Norm of the cartesian gradient     ...    0.000056709
RMS gradient                       ...    0.000013367
MAX gradient                       ...    0.000046428
------------------------------------------------------------------------------
                         ORCA GEOMETRY RELAXATION STEP
------------------------------------------------------------------------------

Reading the OPT-File                    .... done
Getting information on internals        .... done
Copying old internal coords+grads       .... done
Making the new internal coordinates     .... (new redundants).... done
Validating the new internal coordinates .... (new redundants).... done
Calculating the B-matrix                .... done
Calculating the G,G- and P matrices     .... done
Transforming gradient to internals      .... done
Projecting the internal gradient        .... done
Number of atoms                         ....   6
Number of internal coordinates          ....  17
Current Energy                          ....   -33.865407645 Eh
Current gradient norm                   ....     0.000056709 Eh/bohr
Maximum allowed component of the step   ....  0.300
Current trust radius                    ....  0.300

(DQ * DQ)^2 = 0.00000000035649     Bofill update is skipped
Updating the Hessian (Bofill)          .... 
(DQ * DQ)^2 = 0.00000000534679     Bofill update is skipped
Diagonalizing the Hessian               .... done
Dimension of the hessian                ....  17
Lowest eigenvalues of the Hessian:
 -0.032780582  0.010758631  0.010804764  0.017666829  0.075228316
Hessian has   1 negative eigenvalues
Taking P-RFO step
Searching for lambda that maximizes along the lowest mode
TS mode is mode number   0 with eigenvalue  -0.03278058 and components:
   1.   -0.45942508
   2.    0.00205963
   3.    0.00206434
   4.    0.00210845
   5.    0.14506457
   6.    0.14495526
   7.    0.64072648
   8.    0.14500636
   9.    0.22041700
  10.   -0.08894155
  11.    0.22049831
  12.   -0.08888022
  13.   -0.08886672
  14.   -0.22041868
  15.   -0.22048453
  16.   -0.22045322
  17.    0.22044146

Lambda that maximizes along the TS mode:       0.00000002
Searching for lambda that minimizes along all other modes
In cycle   1: lambdaN =  -0.00000000   step =   0.00000000
Lambda that minimizes along all other modes:  -0.00000000
The final length of the internal step   ....       0.0008
Converting the step to cartesian space:
 Initial RMS(Int)=    0.0002034132
Transforming coordinates:
 Iter   0:  RMS(Cart)=    0.0000941815 RMS(Int)=    0.0002033838
 Iter   1:  RMS(Cart)=    0.0000000133 RMS(Int)=    0.0000000143
done
Storing new coordinates                 .... done

                                .--------------------.
          ----------------------|Geometry convergence|-------------------------
          Item                value                   Tolerance       Converged
          ---------------------------------------------------------------------
          Energy change       0.0000011733            0.0000050000      YES
          RMS gradient        0.0000074377            0.0001000000      YES
          MAX gradient        0.0000193163            0.0003000000      YES
          RMS step            0.0002034132            0.0020000000      YES
          MAX step            0.0005332119            0.0040000000      YES
          ........................................................
          Max(Bonds)      0.0003      Max(Angles)    0.01
          Max(Dihed)        0.00      Max(Improp)    0.00
          ---------------------------------------------------------------------

                    ***********************HURRAY********************
                    ***        THE OPTIMIZATION HAS CONVERGED     ***
                    *************************************************


    ---------------------------------------------------------------------------
                         Redundant Internal Coordinates

                          --- Optimized Parameters ---  
                            (Angstroem and degrees)

        Definition                    OldVal   dE/dq     Step     FinalVal  comp.(TS mode)
    ----------------------------------------------------------------------------
     1. B(Cl  1,C   0)                2.0440 -0.000012 -0.0002    2.0438          0.46
     2. B(H   2,C   0)                1.0825 -0.000008  0.0000    1.0825   
     3. B(H   3,C   0)                1.0825 -0.000008  0.0000    1.0825   
     4. B(H   4,C   0)                1.0825 -0.000008  0.0000    1.0825   
     5. B(F   5,H   2)                2.2520  0.000003  0.0001    2.2521   
     6. B(F   5,H   3)                2.2519  0.000003  0.0001    2.2520   
     7. B(F   5,C   0)                2.1262  0.000019  0.0003    2.1265          0.64
     8. B(F   5,H   4)                2.2519  0.000003  0.0001    2.2520   
     9. A(Cl  1,C   0,H   3)           97.76  0.000006    0.01     97.77   
    10. A(H   2,C   0,H   3)          118.21 -0.000003   -0.00    118.20   
    11. A(Cl  1,C   0,H   4)           97.76  0.000006    0.01     97.77   
    12. A(H   2,C   0,H   4)          118.21 -0.000003   -0.00    118.20   
    13. A(H   3,C   0,H   4)          118.21 -0.000003   -0.00    118.21   
    14. A(H   2,C   0,F   5)           82.25 -0.000006   -0.01     82.24   
    15. A(H   3,C   0,F   5)           82.24 -0.000006   -0.01     82.23   
    16. A(H   4,C   0,F   5)           82.24 -0.000006   -0.01     82.23   
    17. A(Cl  1,C   0,H   2)           97.75  0.000006    0.01     97.76   
    ----------------------------------------------------------------------------
                 *******************************************************
                 *** FINAL ENERGY EVALUATION AT THE STATIONARY POINT ***
                 ***               (AFTER    3 CYCLES)               ***
                 *******************************************************
---------------------------------
CARTESIAN COORDINATES (ANGSTROEM)
---------------------------------
  C      0.026642    0.000026   -0.000017
  Cl     2.070407   -0.000118    0.000040
  H     -0.119533    1.072596   -0.000051
  H     -0.119690   -0.536167    0.928868
  H     -0.119639   -0.536219   -0.928879
  F     -2.099830    0.000092   -0.000092

----------------------------
CARTESIAN COORDINATES (A.U.)
----------------------------
  NO LB      ZA    FRAG     MASS         X           Y           Z
   0 C     4.0000    0    12.011    0.050347    0.000049   -0.000032
   1 Cl    7.0000    0    35.453    3.912502   -0.000223    0.000076
   2 H     1.0000    0     1.008   -0.225884    2.026913   -0.000096
   3 H     1.0000    0     1.008   -0.226181   -1.013208    1.755305
   4 H     1.0000    0     1.008   -0.226085   -1.013307   -1.755327
   5 F     7.0000    0    18.998   -3.968103    0.000174   -0.000173

--------------------------------
INTERNAL COORDINATES (ANGSTROEM)
--------------------------------
 C      0   0   0     0.000000000000     0.00000000     0.00000000
 Cl     1   0   0     2.043764416796     0.00000000     0.00000000
 H      1   2   0     1.082485219594    97.76476231     0.00000000
 H      1   2   3     1.082470372916    97.76583047   240.00262020
 H      1   2   3     1.082470292060    97.76587695   119.99743242
 F      1   2   3     2.126471971040   179.99770481   169.53668893

---------------------------
INTERNAL COORDINATES (A.U.)
---------------------------
 C      0   0   0     0.000000000000     0.00000000     0.00000000
[...]
  2 H s       :     0.954993  s :     0.954993
  3 H s       :     0.954975  s :     0.954975
  4 H s       :     0.954973  s :     0.954973
  5 F s       :     1.991010  s :     1.991010
      pz      :     1.999150  p :     5.855452
      px      :     1.857152
      py      :     1.999150


                      *****************************
                      * MAYER POPULATION ANALYSIS *
                      *****************************

  NA   - Mulliken gross atomic population
  ZA   - Total nuclear charge
  QA   - Mulliken gross atomic charge
  VA   - Mayer's total valence
  BVA  - Mayer's bonded valence
  FA   - Mayer's free valence

  ATOM       NA         ZA         QA         VA         BVA        FA
  0 C      5.9159     4.0000    -1.9159     2.0011    10.1837    -8.1826
  1 Cl     7.7766     7.0000    -0.7766     0.3960     1.4422    -1.0462
  2 H      1.5795     1.0000    -0.5795     0.6642     3.1858    -2.5216
  3 H      1.5795     1.0000    -0.5795     0.6642     3.1858    -2.5215
  4 H      1.5795     1.0000    -0.5795     0.6642     3.1858    -2.5215
  5 F      7.8818     7.0000    -0.8818     0.2228     0.3843    -0.1614

  Mayer bond orders larger than 0.100000
B(  0-C ,  1-Cl) :   1.2567 B(  0-C ,  2-H ) :   2.8741 B(  0-C ,  3-H ) :   2.8741 
B(  0-C ,  4-H ) :   2.8741 B(  0-C ,  5-F ) :   0.3047 B(  2-H ,  3-H ) :   0.1201 
B(  2-H ,  4-H ) :   0.1201 B(  3-H ,  4-H ) :   0.1200 

-------
TIMINGS
-------

Total SCF time: 0 days 0 hours 0 min 0 sec 

Total time                  ....       0.152 sec
Sum of individual times     ....       0.009 sec  (  6.2%)

Fock matrix formation       ....       0.006 sec  (  4.3%)
Diagonalization             ....       0.000 sec  (  0.1%)
Density matrix formation    ....       0.000 sec  (  0.0%)
Population analysis         ....       0.001 sec  (  0.9%)
Initial guess               ....       0.001 sec  (  0.6%)
Orbital Transformation      ....       0.000 sec  (  0.0%)
Orbital Orthonormalization  ....       0.000 sec  (  0.0%)
DIIS solution               ....       0.000 sec  (  0.0%)
SOSCF solution              ....       0.000 sec  (  0.3%)

Maximum memory used throughout the entire SCF-calculation: 222.8 MB

-------------------------   --------------------
FINAL SINGLE POINT ENERGY       -33.865407633942
-------------------------   --------------------

                                *** OPTIMIZATION RUN DONE ***

                            ***************************************
                            *     ORCA property calculations      *
                            ***************************************

                                    ---------------------
                                    Active property flags
                                    ---------------------
   (+) Dipole Moment


------------------------------------------------------------------------------
                       ORCA ELECTRIC PROPERTIES CALCULATION
------------------------------------------------------------------------------

Dipole Moment Calculation                       ... on
Quadrupole Moment Calculation                   ... off
Polarizability Calculation                      ... off
GBWName                                         ... FCl_TS_OPT.gbw
Electron density                                ... FCl_TS_OPT.scfp
The origin for moment calculation is the CENTER OF MASS  = ( 0.910184, -0.000052 -0.000016)

-------------
DIPOLE MOMENT
-------------
                                X             Y             Z
Electronic contribution:     25.75448      -0.00194       0.00074
Nuclear contribution   :    -19.97983       0.00134      -0.00059
                        -----------------------------------------
Total Dipole Moment    :      5.77464      -0.00060       0.00014
                        -----------------------------------------
Magnitude (a.u.)       :      5.77464
Magnitude (Debye)      :     14.67797



--------------------
Rotational spectrum 
--------------------
 
Rotational constants in cm-1:     4.845977     0.076137     0.076137 
Rotational constants in MHz : 145278.736611  2282.538164  2282.536681 

 Dipole components along the rotational axes: 
x,y,z [a.u.] :     5.774641    -0.000040    -0.000298 
x,y,z [Debye]:    14.677972    -0.000101    -0.000758 

 

----------------------------------------------------------------------------
                           ORCA NUMERICAL FREQUENCIES
----------------------------------------------------------------------------

Number of atoms                ... 6
Central differences            ... used
Number of displacements        ... 36
Numerical increment            ... 5.000e-03 bohr
IR-spectrum generation         ... on
Raman-spectrum generation      ... off
Surface Crossing Hessian       ... off

The output will be reduced. Please look at the following files:
SCF program output             ... >FCl_TS_OPT.lastscf
Integral program output        ... >FCl_TS_OPT.lastint
Gradient program output        ... >FCl_TS_OPT.lastgrad
Dipole moment program output   ... >FCl_TS_OPT.lastmom
AutoCI program output          ... >FCl_TS_OPT.lastautoci

	<< Calculating on displaced geometry   1 (of  36) >>
	<< Calculating on displaced geometry   2 (of  36) >>
	<< Calculating on displaced geometry   3 (of  36) >>
	<< Calculating on displaced geometry   4 (of  36) >>
	<< Calculating on displaced geometry   5 (of  36) >>
	<< Calculating on displaced geometry   6 (of  36) >>
	<< Calculating on displaced geometry   7 (of  36) >>
	<< Calculating on displaced geometry   8 (of  36) >>
	<< Calculating on displaced geometry   9 (of  36) >>
	<< Calculating on displaced geometry  10 (of  36) >>
	<< Calculating on displaced geometry  11 (of  36) >>
	<< Calculating on displaced geometry  12 (of  36) >>
	<< Calculating on displaced geometry  13 (of  36) >>
	<< Calculating on displaced geometry  14 (of  36) >>
	<< Calculating on displaced geometry  15 (of  36) >>
	<< Calculating on displaced geometry  16 (of  36) >>
	<< Calculating on displaced geometry  17 (of  36) >>
	<< Calculating on displaced geometry  18 (of  36) >>
	<< Calculating on displaced geometry  19 (of  36) >>
	<< Calculating on displaced geometry  20 (of  36) >>
	<< Calculating on displaced geometry  21 (of  36) >>
	<< Calculating on displaced geometry  22 (of  36) >>
	<< Calculating on displaced geometry  23 (of  36) >>
	<< Calculating on displaced geometry  24 (of  36) >>
	<< Calculating on displaced geometry  25 (of  36) >>
	<< Calculating on displaced geometry  26 (of  36) >>
	<< Calculating on displaced geometry  27 (of  36) >>
	<< Calculating on displaced geometry  28 (of  36) >>
	<< Calculating on displaced geometry  29 (of  36) >>
	<< Calculating on displaced geometry  30 (of  36) >>
	<< Calculating on displaced geometry  31 (of  36) >>
	<< Calculating on displaced geometry  32 (of  36) >>
	<< Calculating on displaced geometry  33 (of  36) >>
	<< Calculating on displaced geometry  34 (of  36) >>
	<< Calculating on displaced geometry  35 (of  36) >>
	<< Calculating on displaced geometry  36 (of  36) >>

-----------------------
VIBRATIONAL FREQUENCIES
-----------------------

Scaling factor for frequencies =  1.000000000 (already applied!)

   0:         0.00 cm**-1
   1:         0.00 cm**-1
   2:         0.00 cm**-1
   3:         0.00 cm**-1
   4:         0.00 cm**-1
   5:         0.00 cm**-1
   6:      -504.78 cm**-1 ***imaginary mode***
   7:       173.63 cm**-1
   8:       173.63 cm**-1
   9:       331.22 cm**-1
  10:       928.93 cm**-1
  11:       929.06 cm**-1
  12:      1074.31 cm**-1
  13:      1269.36 cm**-1
  14:      1269.78 cm**-1
  15:      3107.79 cm**-1
  16:      3187.78 cm**-1
  17:      3187.92 cm**-1


------------
NORMAL MODES
------------

These modes are the cartesian displacements weighted by the diagonal matrix
M(i,i)=1/sqrt(m[i]) where m[i] is the mass of the displaced atom
Thus, these vectors are normalized but *not* orthogonal

                  0          1          2          3          4          5    
      0       0.000000   0.000000   0.000000   0.000000   0.000000   0.000000
      1       0.000000   0.000000   0.000000   0.000000   0.000000   0.000000
      2       0.000000   0.000000   0.000000   0.000000   0.000000   0.000000
      3       0.000000   0.000000   0.000000   0.000000   0.000000   0.000000
      4       0.000000   0.000000   0.000000   0.000000   0.000000   0.000000
      5       0.000000   0.000000   0.000000   0.000000   0.000000   0.000000
      6       0.000000   0.000000   0.000000   0.000000   0.000000   0.000000
      7       0.000000   0.000000   0.000000   0.000000   0.000000   0.000000
      8       0.000000   0.000000   0.000000   0.000000   0.000000   0.000000
      9       0.000000   0.000000   0.000000   0.000000   0.000000   0.000000
     10       0.000000   0.000000   0.000000   0.000000   0.000000   0.000000
     11       0.000000   0.000000   0.000000   0.000000   0.000000   0.000000
     12       0.000000   0.000000   0.000000   0.000000   0.000000   0.000000
     13       0.000000   0.000000   0.000000   0.000000   0.000000   0.000000
     14       0.000000   0.000000   0.000000   0.000000   0.000000   0.000000
     15       0.000000   0.000000   0.000000   0.000000   0.000000   0.000000
     16       0.000000   0.000000   0.000000   0.000000   0.000000   0.000000
     17       0.000000   0.000000   0.000000   0.000000   0.000000   0.000000
                  6          7          8          9         10         11    
      0      -0.874891   0.000225   0.000248   0.351171   0.000001  -0.000048
      1      -0.000609  -0.278560  -0.334394  -0.000962   0.002335  -0.061883
      2      -0.000032  -0.334319   0.278536  -0.000016   0.061940   0.002336
      3       0.087258   0.000088   0.000103  -0.519131  -0.000004   0.000047
      4       0.000142   0.059208   0.071076   0.000225  -0.000622   0.016499
      5       0.000003   0.071064  -0.059207  -0.000011  -0.016513  -0.000623
      6       0.129744  -0.133293  -0.160043  -0.090532  -0.030364   0.806447
      7       0.113579  -0.297223  -0.356796  -0.034336  -0.002286   0.060718
      8      -0.000008  -0.387229   0.322587  -0.000030  -0.089191  -0.003343
      9       0.130790  -0.072100   0.195984  -0.090269  -0.683653  -0.430421
     10      -0.058430  -0.329400  -0.368493   0.015816  -0.015301   0.081885
     11       0.099037  -0.375439   0.290550  -0.028985  -0.068469   0.009644
     12       0.130822   0.205811  -0.035532  -0.090282   0.714174  -0.377740
     13      -0.058438  -0.302932  -0.390580   0.015822   0.009089   0.082806
     14      -0.099046  -0.353543   0.316824   0.028930  -0.067518  -0.014799
     15       0.369527  -0.000328  -0.000370   0.761137  -0.000002   0.000033
     16       0.000294   0.114942   0.137981   0.000331   0.000136  -0.003625
     17       0.000015   0.137973  -0.114951   0.000034   0.003602   0.000136
                 12         13         14         15         16         17    
      0       0.004303   0.000003   0.000041   0.016081  -0.000003  -0.000015
      1      -0.000023   0.000048   0.093186   0.000031  -0.000131  -0.098435
      2       0.000003  -0.093242   0.000048   0.000000   0.098435  -0.000131
      3       0.032124   0.000000   0.000003   0.001387  -0.000000   0.000001
      4      -0.000008  -0.000000  -0.000383   0.000001  -0.000000  -0.000228
      5       0.000000   0.000392  -0.000000   0.000000   0.000226  -0.000000
      6      -0.572315   0.000050   0.137642  -0.077512  -0.000162  -0.118554
      7      -0.078916   0.000073   0.094164   0.571783   0.001094   0.803865
      8      -0.000026   0.795628  -0.000432  -0.000018   0.017060  -0.000049
      9      -0.570977  -0.119293  -0.069048  -0.077754   0.102909   0.059199
     10       0.039492   0.385006  -0.573334  -0.286081   0.355576   0.187604
     11      -0.068230   0.128036  -0.385429   0.495489  -0.598968  -0.354332
     12      -0.570910   0.119199  -0.069196  -0.077727  -0.102715   0.059459
     13       0.039504  -0.385623  -0.572892  -0.286109  -0.355097   0.188591
     14       0.068185   0.128485   0.385318  -0.495478  -0.597986   0.355954
     15       0.028283   0.000000  -0.000000  -0.000393   0.000000   0.000002
     16       0.000026  -0.000001  -0.002379  -0.000000   0.000000   0.000047
     17       0.000002   0.002393  -0.000001  -0.000000  -0.000052   0.000000


-----------
IR SPECTRUM
-----------

 Mode   freq       eps      Int      T**2         TX        TY        TZ
       cm**-1   L/(mol*cm) km/mol    a.u.
----------------------------------------------------------------------------
  7:    173.63   0.113507  573.62  0.204006  (-0.000030  0.289192  0.346949)
  8:    173.63   0.113529  573.73  0.204039  (-0.000012  0.347128 -0.289035)
  9:    331.22   0.000828    4.18  0.000780  ( 0.027930  0.000271  0.000008)
 10:    928.93   0.002444   12.35  0.000821  (-0.000033  0.001084  0.028632)
 11:    929.06   0.002464   12.45  0.000828  ( 0.000391 -0.028748  0.001081)
 12:   1074.31   0.384632  1943.77  0.111727  ( 0.334256 -0.000010  0.000012)
 13:   1269.36   0.051477  260.14  0.012655  ( 0.000006  0.000058 -0.112495)
 14:   1269.78   0.051571  260.62  0.012674  ( 0.000078  0.112580  0.000058)
 15:   3107.79   0.146555  740.63  0.014716  (-0.121310  0.000105 -0.000002)
 16:   3187.78   0.109595  553.85  0.010729  ( 0.000003  0.000138 -0.103579)
 17:   3187.92   0.109208  551.89  0.010690  ( 0.000098  0.103394  0.000138)

* The epsilon (eps) is given for a Dirac delta lineshape.
** The dipole moment derivative (T) already includes vibrational overlap.

The first frequency considered to be a vibration is 7
The total number of vibrations considered is 11


--------------------------
THERMOCHEMISTRY AT 298.15K
--------------------------

Temperature         ... 298.15 K
Pressure            ... 1.00 atm
Total Mass          ... 69.49 AMU

Throughout the following assumptions are being made:
  (1) The electronic state is orbitally nondegenerate
  (2) There are no thermally accessible electronically excited states
  (3) Hindered rotations indicated by low frequency modes are not
      treated as such but are treated as vibrations and this may
      cause some error
  (4) All equations used are the standard statistical mechanics
      equations for an ideal gas
  (5) All vibrations are strictly harmonic

freq.     173.63  E(vib)   ...       0.38 
freq.     173.63  E(vib)   ...       0.38 
freq.     331.22  E(vib)   ...       0.24 
freq.     928.93  E(vib)   ...       0.03 
freq.     929.06  E(vib)   ...       0.03 
freq.    1074.31  E(vib)   ...       0.02 
freq.    1269.36  E(vib)   ...       0.01 
freq.    1269.78  E(vib)   ...       0.01 
freq.    3107.79  E(vib)   ...       0.00 
freq.    3187.78  E(vib)   ...       0.00 
freq.    3187.92  E(vib)   ...       0.00 

------------
INNER ENERGY
------------

The inner energy is: U= E(el) + E(ZPE) + E(vib) + E(rot) + E(trans)
    E(el)   - is the total energy from the electronic structure calculation
              = E(kin-el) + E(nuc-el) + E(el-el) + E(nuc-nuc)
    E(ZPE)  - the the zero temperature vibrational energy from the frequency calculation
    E(vib)  - the the finite temperature correction to E(ZPE) due to population
              of excited vibrational states
    E(rot)  - is the rotational thermal energy
    E(trans)- is the translational thermal energy

Summary of contributions to the inner energy U:
Electronic energy                ...    -33.86540763 Eh
Zero point energy                ...      0.03561551 Eh      22.35 kcal/mol
Thermal vibrational correction   ...      0.00173876 Eh       1.09 kcal/mol
Thermal rotational correction    ...      0.00141627 Eh       0.89 kcal/mol
Thermal translational correction ...      0.00141627 Eh       0.89 kcal/mol
-----------------------------------------------------------------------
Total thermal energy                    -33.82522082 Eh


Summary of corrections to the electronic energy:
(perhaps to be used in another calculation)
Total thermal correction                  0.00457131 Eh       2.87 kcal/mol
Non-thermal (ZPE) correction              0.03561551 Eh      22.35 kcal/mol
-----------------------------------------------------------------------
Total correction                          0.04018682 Eh      25.22 kcal/mol


--------
ENTHALPY
--------

The enthalpy is H = U + kB*T
                kB is Boltzmann's constant
Total free energy                 ...    -33.82522082 Eh 
Thermal Enthalpy correction       ...      0.00094421 Eh       0.59 kcal/mol
-----------------------------------------------------------------------
Total Enthalpy                    ...    -33.82427661 Eh


Note: Rotational entropy computed according to Herzberg 
Infrared and Raman Spectra, Chapter V,1, Van Nostrand Reinhold, 1945 
Point Group:  Cs, Symmetry Number:   1  
Rotational constants in cm-1:     4.845977     0.076137     0.076137 

Vibrational entropy computed according to the QRRHO of S. Grimme
Chem.Eur.J. 2012 18 9955


-------
ENTROPY
-------

The entropy contributions are T*S = T*(S(el)+S(vib)+S(rot)+S(trans))
     S(el)   - electronic entropy
     S(vib)  - vibrational entropy
     S(rot)  - rotational entropy
     S(trans)- translational entropy
The entropies will be listed as multiplied by the temperature to get
units of energy

Electronic entropy                ...      0.00000000 Eh      0.00 kcal/mol
Vibrational entropy               ...      0.00304649 Eh      1.91 kcal/mol
Rotational entropy                ...      0.01119725 Eh      7.03 kcal/mol
Translational entropy             ...      0.01835566 Eh     11.52 kcal/mol
-----------------------------------------------------------------------
Final entropy term                ...      0.03259940 Eh     20.46 kcal/mol

In case the symmetry of your molecule has not been determined correctly
or in case you have a reason to use a different symmetry number we print 
out the resulting rotational entropy values for sn=1,12 :
 --------------------------------------------------------
|  sn= 1 | S(rot)=       0.01119725 Eh      7.03 kcal/mol|
|  sn= 2 | S(rot)=       0.01054280 Eh      6.62 kcal/mol|
|  sn= 3 | S(rot)=       0.01015996 Eh      6.38 kcal/mol|
|  sn= 4 | S(rot)=       0.00988834 Eh      6.21 kcal/mol|
|  sn= 5 | S(rot)=       0.00967765 Eh      6.07 kcal/mol|
|  sn= 6 | S(rot)=       0.00950551 Eh      5.96 kcal/mol|
|  sn= 7 | S(rot)=       0.00935996 Eh      5.87 kcal/mol|
|  sn= 8 | S(rot)=       0.00923388 Eh      5.79 kcal/mol|
|  sn= 9 | S(rot)=       0.00912267 Eh      5.72 kcal/mol|
|  sn=10 | S(rot)=       0.00902320 Eh      5.66 kcal/mol|
|  sn=11 | S(rot)=       0.00893321 Eh      5.61 kcal/mol|
|  sn=12 | S(rot)=       0.00885105 Eh      5.55 kcal/mol|
 --------------------------------------------------------


-------------------
GIBBS FREE ENERGY
-------------------

The Gibbs free energy is G = H - T*S

Total enthalpy                    ...    -33.82427661 Eh 
Total entropy correction          ...     -0.03259940 Eh    -20.46 kcal/mol
-----------------------------------------------------------------------
Final Gibbs free energy         ...    -33.85687601 Eh

For completeness - the Gibbs free energy minus the electronic energy
G-E(el)                           ...      0.00853162 Eh      5.35 kcal/mol



Timings for individual modules:

Sum of individual times         ...      121.287 sec (=   2.021 min)
STO integral calculation        ...        0.197 sec (=   0.003 min)   0.2 %
SCF iterations                  ...        1.076 sec (=   0.018 min)   0.9 %
SCF Gradient evaluation         ...        0.091 sec (=   0.002 min)   0.1 %
Geometry relaxation             ...        0.119 sec (=   0.002 min)   0.1 %
Numerical frequency calculation ...      119.804 sec (=   1.997 min)  98.8 %
                             ****ORCA TERMINATED NORMALLY****
TOTAL RUN TIME: 0 days 0 hours 2 minutes 1 seconds 69 msec
