
                                 *****************
                                 * O   R   C   A *
                                 *****************

                                            #,                                       
                                            ###                                      
                                            ####                                     
                                            #####                                    
                                            ######                                   
                                           ########,                                 
                                     ,,################,,,,,                         
                               ,,#################################,,                 
                          ,,##########################################,,             
                       ,#########################################, ''#####,          
                    ,#############################################,,   '####,        
                  ,##################################################,,,,####,       
                ,###########''''           ''''###############################       
              ,#####''   ,,,,##########,,,,          '''####'''          '####       
            ,##' ,,,,###########################,,,                        '##       
           ' ,,###''''                  '''############,,,                           
         ,,##''                                '''############,,,,        ,,,,,,###''
      ,#''                                            '''#######################'''  
     '                                                          ''''####''''         
             ,#######,   #######,   ,#######,      ##                                
            ,#'     '#,  ##    ##  ,#'     '#,    #''#        ######   ,####,        
            ##       ##  ##   ,#'  ##            #'  '#       #        #'  '#        
            ##       ##  #######   ##           ,######,      #####,   #    #        
            '#,     ,#'  ##    ##  '#,     ,#' ,#      #,         ##   #,  ,#        
             '#######'   ##     ##  '#######'  #'      '#     #####' # '####'        



                  #######################################################
                  #                        -***-                        #
                  #          Department of theory and spectroscopy      #
                  #    Directorship and core code : Frank Neese         #
                  #        Max Planck Institute fuer Kohlenforschung    #
                  #                Kaiser Wilhelm Platz 1               #
                  #                 D-45470 Muelheim/Ruhr               #
                  #                      Germany                        #
                  #                                                     #
                  #                  All rights reserved                #
                  #                        -***-                        #
                  #######################################################


                         Program Version 5.0.4 -  RELEASE  -


 With contributions from (in alphabetic order):
   Daniel Aravena         : Magnetic Suceptibility
   Michael Atanasov       : Ab Initio Ligand Field Theory (pilot matlab implementation)
   Alexander A. Auer      : GIAO ZORA, VPT2 properties, NMR spectrum
   Ute Becker             : Parallelization
   Giovanni Bistoni       : ED, misc. LED, open-shell LED, HFLD
   Martin Brehm           : Molecular dynamics
   Dmytro Bykov           : SCF Hessian
   Vijay G. Chilkuri      : MRCI spin determinant printing, contributions to CSF-ICE
   Dipayan Datta          : RHF DLPNO-CCSD density
   Achintya Kumar Dutta   : EOM-CC, STEOM-CC
   Dmitry Ganyushin       : Spin-Orbit,Spin-Spin,Magnetic field MRCI
   Miquel Garcia          : C-PCM and meta-GGA Hessian, CC/C-PCM, Gaussian charge scheme
   Yang Guo               : DLPNO-NEVPT2, F12-NEVPT2, CIM, IAO-localization
   Andreas Hansen         : Spin unrestricted coupled pair/coupled cluster methods
   Benjamin Helmich-Paris : MC-RPA, TRAH-SCF, COSX integrals
   Lee Huntington         : MR-EOM, pCC
   Robert Izsak           : Overlap fitted RIJCOSX, COSX-SCS-MP3, EOM
   Marcus Kettner         : VPT2
   Christian Kollmar      : KDIIS, OOCD, Brueckner-CCSD(T), CCSD density, CASPT2, CASPT2-K
   Simone Kossmann        : Meta GGA functionals, TD-DFT gradient, OOMP2, MP2 Hessian
   Martin Krupicka        : Initial AUTO-CI
   Lucas Lang             : DCDCAS
   Marvin Lechner         : AUTO-CI (C++ implementation), FIC-MRCC
   Dagmar Lenk            : GEPOL surface, SMD
   Dimitrios Liakos       : Extrapolation schemes; Compound Job, initial MDCI parallelization
   Dimitrios Manganas     : Further ROCIS development; embedding schemes
   Dimitrios Pantazis     : SARC Basis sets
   Anastasios Papadopoulos: AUTO-CI, single reference methods and gradients
   Taras Petrenko         : DFT Hessian,TD-DFT gradient, ASA, ECA, R-Raman, ABS, FL, XAS/XES, NRVS
   Peter Pinski           : DLPNO-MP2, DLPNO-MP2 Gradient
   Christoph Reimann      : Effective Core Potentials
   Marius Retegan         : Local ZFS, SOC
   Christoph Riplinger    : Optimizer, TS searches, QM/MM, DLPNO-CCSD(T), (RO)-DLPNO pert. Triples
   Tobias Risthaus        : Range-separated hybrids, TD-DFT gradient, RPA, STAB
   Michael Roemelt        : Original ROCIS implementation
   Masaaki Saitow         : Open-shell DLPNO-CCSD energy and density
   Barbara Sandhoefer     : DKH picture change effects
   Avijit Sen             : IP-ROCIS
   Kantharuban Sivalingam : CASSCF convergence, NEVPT2, FIC-MRCI
   Bernardo de Souza      : ESD, SOC TD-DFT
   Georgi Stoychev        : AutoAux, RI-MP2 NMR, DLPNO-MP2 response
   Willem Van den Heuvel  : Paramagnetic NMR
   Boris Wezisla          : Elementary symmetry handling
   Frank Wennmohs         : Technical directorship


 We gratefully acknowledge several colleagues who have allowed us to
 interface, adapt or use parts of their codes:
   Stefan Grimme, W. Hujo, H. Kruse, P. Pracht,  : VdW corrections, initial TS optimization,
                  C. Bannwarth, S. Ehlert          DFT functionals, gCP, sTDA/sTD-DF
   Ed Valeev, F. Pavosevic, A. Kumar             : LibInt (2-el integral package), F12 methods
   Garnet Chan, S. Sharma, J. Yang, R. Olivares  : DMRG
   Ulf Ekstrom                                   : XCFun DFT Library
   Mihaly Kallay                                 : mrcc  (arbitrary order and MRCC methods)
   Jiri Pittner, Ondrej Demel                    : Mk-CCSD
   Frank Weinhold                                : gennbo (NPA and NBO analysis)
   Christopher J. Cramer and Donald G. Truhlar   : smd solvation model
   Lars Goerigk                                  : TD-DFT with DH, B97 family of functionals
   V. Asgeirsson, H. Jonsson                     : NEB implementation
   FAccTs GmbH                                   : IRC, NEB, NEB-TS, DLPNO-Multilevel, CI-OPT
                                                   MM, QMMM, 2- and 3-layer-ONIOM, Crystal-QMMM,
                                                   LR-CPCM, SF, NACMEs, symmetry and pop. for TD-DFT,
                                                   nearIR, NL-DFT gradient (VV10), updates on ESD,
                                                   ML-optimized integration grids
   S Lehtola, MJT Oliveira, MAL Marques          : LibXC Library
   Liviu Ungur et al                             : ANISO software


 Your calculation uses the libint2 library for the computation of 2-el integrals
 For citations please refer to: http://libint.valeyev.net

 Your ORCA version has been built with support for libXC version: 5.1.0
 For citations please refer to: https://tddft.org/programs/libxc/

 This ORCA versions uses:
   CBLAS   interface :  Fast vector & matrix operations
   LAPACKE interface :  Fast linear algebra routines
   SCALAPACK package :  Parallel linear algebra routines
   Shared memory     :  Shared parallel matrices
   BLAS/LAPACK       :  OpenBLAS 0.3.15  USE64BITINT DYNAMIC_ARCH NO_AFFINITY Zen SINGLE_THREADED
        Core in use  :  Zen
   Copyright (c) 2011-2014, The OpenBLAS Project


leaving
================================================================================

----- Orbital basis set information -----
================================================================================
                                        WARNINGS
                       Please study these warnings very carefully!
================================================================================


WARNING: Direct SCF is incompatible with Method<>HF and Method<>DFT
  ===> : conventional SCF is chosen

WARNING: The NDO methods need Guess=HUECKEL or Guess=HCORE or Guess=MOREAD
  ===> : Guess is set to Hueckel

WARNING: The NDO methods need %rel::SOCType==1
  ===> : %rel::SOCType is set to 1

WARNING: The NDO methods cannot have frozencore=1
  ===> : %method FrozenCore=0 end

WARNING: The NDO methods cannot be used with Shark
  ===> : Turning Shark off

WARNING: Geometry Optimization
  ===> : Switching off AutoStart
         For restart on a previous wavefunction, please use MOREAD
================================================================================
                                       INPUT FILE
================================================================================
NAME = Keto_enol_ts.inp
|  1> !PM3 OptTS NumFreq 
|  2> 
|  3> 
|  4> %geom
|  5> 	Calc_hess true
|  6> 	NumHess true
|  7> 	Recalc_Hess 5
|  8> end
|  9> 
| 10> *xyz 0 1
| 11> 	C        0.001313000      0.000005000     -0.000046000
| 12> 	C        1.475999000      0.008294000     -0.013976000
| 13> 	H       -0.375968000      1.031458000      0.002341000
| 14> 	H       -0.420180000     -0.519965000      0.869851000
| 15> 	H       -0.376142000     -0.490251000     -0.907448000
| 16> 	C        2.450839000      0.585187000     -0.981837000
| 17> 	H        2.467266000      0.142612000     -1.977631000
| 18> 	H        3.142212000      0.018241000     -0.030621000
| 19> 	H        2.467304000      1.671658000     -1.066026000
| 20> 	O        2.253070000     -0.492092000      0.825833000
| 21> 
| 22> **                         ****END OF INPUT****
================================================================================

                       *****************************
                       * Geometry Optimization Run *
                       *****************************

Geometry optimization settings:
Update method            Update   .... Bofill
Choice of coordinates    CoordSys .... Z-matrix Internals
Initial Hessian          InHess   .... Almoef's Model

Convergence Tolerances:
Energy Change            TolE     ....  5.0000e-06 Eh
Max. Gradient            TolMAXG  ....  3.0000e-04 Eh/bohr
RMS Gradient             TolRMSG  ....  1.0000e-04 Eh/bohr
Max. Displacement        TolMAXD  ....  4.0000e-03 bohr
RMS Displacement         TolRMSD  ....  2.0000e-03 bohr
Strict Convergence                ....  False
------------------------------------------------------------------------------
                        ORCA OPTIMIZATION COORDINATE SETUP
------------------------------------------------------------------------------

The optimization will be done in new redundant internal coordinates
Making redundant internal coordinates   ...  (new redundants) done
Following TS mode number                ...     0
Evaluating the initial hessian          ...  (Is done on the fly) done
Evaluating the coordinates              ...  done
Calculating the B-matrix                .... done
Calculating the G-matrix                .... done
Diagonalizing the G-matrix              .... done
The first mode is                       ....   21
The number of degrees of freedom        ....   24

    -----------------------------------------------------------------
                    Redundant Internal Coordinates


    -----------------------------------------------------------------
         Definition                    Initial Value    d2E/dq (diagonal element)
    -----------------------------------------------------------------
      1. B(C   1,C   0)                  1.4748         0.000000   
      2. B(H   2,C   0)                  1.0983         0.000000   
      3. B(H   3,C   0)                  1.0976         0.000000   
      4. B(H   4,C   0)                  1.0983         0.000000   
      5. B(C   5,C   1)                  1.4899         0.000000   
      6. B(H   6,C   5)                  1.0898         0.000000   
      7. B(H   7,C   5)                  1.3055         0.000000   
      8. B(H   8,C   5)                  1.0899         0.000000   
      9. B(O   9,H   7)                  1.3359         0.000000   
     10. B(O   9,C   1)                  1.2488         0.000000   
     11. A(C   1,C   0,H   3)          113.2121         0.000000   
     12. A(C   1,C   0,H   2)          109.7696         0.000000   
     13. A(C   1,C   0,H   4)          109.7773         0.000000   
     14. A(H   2,C   0,H   4)          107.6354         0.000000   
     15. A(H   3,C   0,H   4)          108.1411         0.000000   
     16. A(H   2,C   0,H   3)          108.1354         0.000000   
     17. A(C   0,C   1,C   5)          131.4955         0.000000   
     18. A(C   5,C   1,O   9)          100.6534         0.000000   
     19. A(C   0,C   1,O   9)          127.8511         0.000000   
     20. A(H   7,C   5,H   8)          118.7654         0.000000   
     21. A(H   6,C   5,H   8)          109.5131         0.000000   
     22. A(C   1,C   5,H   8)          116.4912         0.000000   
     23. A(H   6,C   5,H   7)          118.7784         0.000000   
     24. A(C   1,C   5,H   7)           72.8441         0.000000   
     25. A(C   1,C   5,H   6)          116.4984         0.000000   
     26. A(C   5,H   7,O   9)          106.2937         0.000000   
     27. A(C   1,O   9,H   7)           80.2088         0.000000   
     28. D(O   9,C   1,C   0,H   3)     -0.0813         0.000000   
     29. D(C   5,C   1,C   0,H   2)    -59.1388         0.000000   
     30. D(O   9,C   1,C   0,H   4)   -121.0266         0.000000   
     31. D(C   5,C   1,C   0,H   4)     58.9832         0.000000   
     32. D(C   5,C   1,C   0,H   3)    179.9286         0.000000   
     33. D(O   9,C   1,C   0,H   2)    120.8513         0.000000   
     34. D(H   6,C   5,C   1,C   0)    -65.8547         0.000000   
     35. D(H   8,C   5,C   1,O   9)   -114.1270         0.000000   
     36. D(H   8,C   5,C   1,C   0)     65.8651         0.000000   
     37. D(H   7,C   5,C   1,O   9)      0.0063         0.000000   
     38. D(H   7,C   5,C   1,C   0)    179.9984         0.000000   
     39. D(H   6,C   5,C   1,O   9)    114.1532         0.000000   
     40. D(O   9,H   7,C   5,H   8)    111.2834         0.000000   
     41. D(O   9,H   7,C   5,H   6)   -111.3021         0.000000   
     42. D(O   9,H   7,C   5,C   1)     -0.0060         0.000000   
     43. D(C   1,O   9,H   7,C   5)      0.0069         0.000000   
     44. D(H   7,O   9,C   1,C   5)     -0.0059         0.000000   
     45. D(H   7,O   9,C   1,C   0)   -179.9984         0.000000   
    -----------------------------------------------------------------

Number of atoms                         .... 10
Number of degrees of freedom            .... 45

         *************************************************************
         *                GEOMETRY OPTIMIZATION CYCLE   1            *
         *************************************************************
---------------------------------
CARTESIAN COORDINATES (ANGSTROEM)
---------------------------------
  C      0.001313    0.000005   -0.000046
  C      1.475999    0.008294   -0.013976
  H     -0.375968    1.031458    0.002341
  H     -0.420180   -0.519965    0.869851
  H     -0.376142   -0.490251   -0.907448
  C      2.450839    0.585187   -0.981837
  H      2.467266    0.142612   -1.977631
  H      3.142212    0.018241   -0.030621
  H      2.467304    1.671658   -1.066026
  O      2.253070   -0.492092    0.825833

----------------------------
CARTESIAN COORDINATES (A.U.)
----------------------------
  NO LB      ZA    FRAG     MASS         X           Y           Z
   0 C     4.0000    0    12.011    0.002481    0.000009   -0.000087
   1 C     4.0000    0    12.011    2.789234    0.015673   -0.026411
   2 H     1.0000    0     1.008   -0.710477    1.949173    0.004424
   3 H     1.0000    0     1.008   -0.794025   -0.982591    1.643780
   4 H     1.0000    0     1.008   -0.710805   -0.926440   -1.714828
   5 C     4.0000    0    12.011    4.631415    1.105843   -1.855403
   6 H     1.0000    0     1.008    4.662457    0.269498   -3.737181
   7 H     1.0000    0     1.008    5.937920    0.034470   -0.057865
   8 H     1.0000    0     1.008    4.662529    3.158976   -2.014497
   9 O     6.0000    0    15.999    4.257685   -0.929919    1.560598

--------------------------------
INTERNAL COORDINATES (ANGSTROEM)
--------------------------------
 C      0   0   0     0.000000000000     0.00000000     0.00000000
 C      1   0   0     1.474775084892     0.00000000     0.00000000
 H      1   2   0     1.098290463374   109.76955353     0.00000000
 H      1   2   3     1.097609193000   113.21206327   239.06741562
 H      1   2   3     1.098272102971   109.77729115   118.12207887
 C      2   1   3     1.489923982749   131.49548120   300.86115585
 H      6   2   1     1.089838596945   116.49841729   294.14532406
 H      6   2   1     1.305464005900    72.84411002   179.99836136
 H      6   2   1     1.089852337607   116.49119909    65.86510411
 O      2   1   3     1.248801283038   127.85112067   120.85131334

---------------------------
INTERNAL COORDINATES (A.U.)
---------------------------
 C      0   0   0     0.000000000000     0.00000000     0.00000000
 C      1   0   0     2.786921019576     0.00000000     0.00000000
 H      1   2   0     2.075468191275   109.76955353     0.00000000
 H      1   2   3     2.074180776844   113.21206327   239.06741562
 H      1   2   3     2.075433495142   109.77729115   118.12207887
 C      2   1   3     2.815548287756   131.49548120   300.86115585
 H      6   2   1     2.059496478402   116.49841729   294.14532406
 H      6   2   1     2.466969448843    72.84411002   179.99836136
 H      6   2   1     2.059522444491   116.49119909    65.86510411
 O      2   1   3     2.359892420632   127.85112067   120.85131334

----------------------------
SLATER BASIS SET DIM=  22
----------------------------
  0 C     2 shells
 l=0 nsto= 1
    2       1.565085000000        1.000000000000
 l=1 nsto= 1
    2       1.842345000000        1.000000000000
  1 C     2 shells
 l=0 nsto= 1
    2       1.565085000000        1.000000000000
 l=1 nsto= 1
    2       1.842345000000        1.000000000000
  2 H     1 shells
 l=0 nsto= 1
    1       0.967807000000        1.000000000000
  3 H     1 shells
 l=0 nsto= 1
    1       0.967807000000        1.000000000000
  4 H     1 shells
 l=0 nsto= 1
    1       0.967807000000        1.000000000000
  5 C     2 shells
 l=0 nsto= 1
    2       1.565085000000        1.000000000000
 l=1 nsto= 1
    2       1.842345000000        1.000000000000
  6 H     1 shells
 l=0 nsto= 1
    1       0.967807000000        1.000000000000
  7 H     1 shells
 l=0 nsto= 1
    1       0.967807000000        1.000000000000
  8 H     1 shells
 l=0 nsto= 1
    1       0.967807000000        1.000000000000
  9 O     2 shells
 l=0 nsto= 1
    2       3.796544000000        1.000000000000
 l=1 nsto= 1
    2       2.389402000000        1.000000000000
------------------------------------------------------------------------------
                           ORCA NDO INTEGRAL CALCULATION
------------------------------------------------------------------------------

--------------
NDO PARAMETERS
--------------

Gamma integral treatment              ... MOPAC
Nuclear repulsuion treatment          ... AM1-style
Interaction factors:
s-s (sigma) =    1.0000
s-p (sigma) =    1.0000
s-d (sigma) =    1.0000
p-p (sigma) =    1.0000  p-p(pi) =    1.0000
p-d (sigma) =    1.0000  p-d(pi) =    1.0000
d-d (sigma) =    1.0000  d-d(pi) =    1.0000 d-d (delta) =    1.0000

--------------------------
Parameters for Element H :
--------------------------
 One-electron parameters (in eV)
  U(s)  =   -13.073321 Beta(s) =     5.626512 Neff(s) =     1.000000
 One-center electron repulsion parameters (in eV)
  G(s,s)=    14.794208
--------------------------
Parameters for Element C :
--------------------------
 One-electron parameters (in eV)
  U(s)  =   -47.270320 Beta(s) =    11.910015 Neff(s) =     2.000000
  U(p)  =   -36.266918 Beta(p) =     9.802755 Neff(p) =     2.000000 
 One-center electron repulsion parameters (in eV)
  G(s,s)=    11.200708
  G(s,p)=    10.265027 G(p,p)  =     9.627141
 Slater-Condon parameters (in eV)
 F2(p,p)=     7.3072 G1(s,p)=    6.8729
--------------------------
Parameters for Element O :
--------------------------
 One-electron parameters (in eV)
  U(s)  =   -86.993002 Beta(s) =    45.202651 Neff(s) =     2.000000
  U(p)  =   -71.879580 Beta(p) =    24.752515 Neff(p) =     4.000000 
 One-center electron repulsion parameters (in eV)
  G(s,s)=    15.755760
  G(s,p)=    10.621160 G(p,p)  =    12.822069
 Slater-Condon parameters (in eV)
 F2(p,p)=     5.1997 G1(s,p)=    1.7816

 Number of atoms                    ....   10
 Number of basis functions          ....   22

 Overlap integrals                  .... done
 One electron matrix                .... done
 Nuclear repulsion                  .... done
 Integral list                      .... done
 Electron-electron repulsion        .... done
-------------------------------------------------------------------------------
                                 ORCA SCF
-------------------------------------------------------------------------------

------------
SCF SETTINGS
------------
Hamiltonian:
 ZDO-Hamiltonian        Method          .... NDDO


General Settings:
 Integral files         IntName         .... Keto_enol_ts
 Hartree-Fock type      HFTyp           .... RHF
 Total Charge           Charge          ....    0
 Multiplicity           Mult            ....    1
 Number of Electrons    NEL             ....   24
 Basis Dimension        Dim             ....   22
 Nuclear Repulsion      ENuc            ....     57.8909981053 Eh

Convergence Acceleration:
 DIIS                   CNVDIIS         .... on
   Start iteration      DIISMaxIt       ....    12
   Startup error        DIISStart       ....  0.200000
   # of expansion vecs  DIISMaxEq       ....     5
   Bias factor          DIISBfac        ....   1.050
   Max. coefficient     DIISMaxC        ....  10.000
 Trust-Rad. Augm. Hess. CNVTRAH         .... off
 SOSCF                  CNVSOSCF        .... on
   Start iteration      SOSCFMaxIt      ....   150
   Startup grad/error   SOSCFStart      ....  0.003300
 Level Shifting         CNVShift        .... on
   Level shift para.    LevelShift      ....    0.2500
   Turn off err/grad.   ShiftErr        ....    0.0010
 Zerner damping         CNVZerner       .... off
 Static damping         CNVDamp         .... on
   Fraction old density DampFac         ....    0.7000
   Max. Damping (<1)    DampMax         ....    0.9800
   Min. Damping (>=0)   DampMin         ....    0.0000
   Turn off err/grad.   DampErr         ....    0.1000
 Fernandez-Rico         CNVRico         .... off

SCF Procedure:
 Maximum # iterations   MaxIter         ....   125
 SCF integral mode      SCFMode         .... Conventional
 Integral Buffer length BufferLength    .... 1048576
 Integral index format  IndFormat       ....     0
 Integral value format  ValFormat       ....     0
 Integral Storage       Thresh          ....  2.500e-11 Eh

Convergence Tolerance:
 Convergence Check Mode ConvCheckMode   .... Total+1el-Energy
 Convergence forced     ConvForced      .... 0
 Energy Change          TolE            ....  1.000e-08 Eh
 1-El. energy change                    ....  1.000e-05 Eh
 Orbital Gradient       TolG            ....  1.000e-05
 Orbital Rotation angle TolX            ....  1.000e-05
 DIIS Error             TolErr          ....  5.000e-07


Diagonalization of the overlap matrix:
Smallest eigenvalue                        ... 1.834e-01
Time for diagonalization                   ...    0.033 sec
Threshold for overlap eigenvalues          ... 1.000e-08
Number of eigenvalues below threshold      ... 0
Time for construction of square roots      ...    0.000 sec
Total time needed                          ...    0.034 sec

-------------------------------
INITIAL GUESS: EXTENDED HUECKEL
-------------------------------
EHT matrix was read from disk
EHT matrix was diagonalized
Initial density was built
                      ------------------
                      INITIAL GUESS DONE
                      ------------------

 InCore treatment chosen:
   Memory dedicated               ...    1024 MB
   Memory needed                  ...      0 MB
   Number of tiny    integrals    ...       0
   Number of small   integrals    ...       0
   Number of regular integrals    ...     925

--------------
SCF ITERATIONS
--------------
ITER       Energy         Delta-E        Max-DP      RMS-DP      [F,P]     Damp
  0    -27.0490568922   0.000000000000 0.04357576  0.00575423  0.1109871 0.7000
  1    -27.0743321709  -0.025275278615 0.04867868  0.00599774  0.0917298 0.7000
                               ***Turning on DIIS***
  2    -27.0965514590  -0.022219288192 0.14103576  0.01698277  0.0727015 0.0000
  3    -27.1615919501  -0.065040491022 0.03180915  0.00531057  0.0196112 0.0000
  4    -27.1534866365   0.008105313539 0.01701341  0.00291917  0.0101362 0.0000
  5    -27.1597225666  -0.006235930096 0.00895758  0.00153216  0.0048402 0.0000
                      *** Initiating the SOSCF procedure ***
                           *** Shutting down DIIS ***
                      *** Re-Reading the Fockian *** 
                      *** Removing any level shift *** 
ITER      Energy       Delta-E        Grad      Rot      Max-DP    RMS-DP
  6    -27.16543824  -0.0057156778  0.002923  0.002923  0.003890  0.000709
  7    -27.16916008  -0.0037218334  0.000893  0.001729  0.001678  0.000268
  8    -27.16917213  -0.0000120569  0.000483  0.002043  0.001787  0.000310
  9    -27.16917715  -0.0000050152  0.000061  0.000118  0.000132  0.000020
 10    -27.16917721  -0.0000000638  0.000030  0.000110  0.000130  0.000019
 11    -27.16917724  -0.0000000217  0.000005  0.000013  0.000018  0.000003
                  ***Gradient check signals convergence***
              ***Rediagonalizing the Fockian in SOSCF/NRSCF***

               *****************************************************
               *                     SUCCESS                       *
               *           SCF CONVERGED AFTER  12 CYCLES          *
               *****************************************************


----------------
TOTAL SCF ENERGY
----------------

Total Energy       :          -27.16917724 Eh            -739.31090 eV

Components:
Nuclear Repulsion  :           57.89099811 Eh            1575.29414 eV
Electronic Energy  :          -85.06017534 Eh           -2314.60504 eV
One Electron Energy:         -153.17241396 Eh           -4168.03328 eV
Two Electron Energy:           68.11223862 Eh            1853.42824 eV


---------------
SCF CONVERGENCE
---------------

  Last Energy change         ...   -7.5946e-10  Tolerance :   1.0000e-08
  Last MAX-Density change    ...    1.2877e-05  Tolerance :   1.0000e-07
  Last RMS-Density change    ...    1.8900e-06  Tolerance :   5.0000e-09
  Last Orbital Gradient      ...    2.1587e-06  Tolerance :   1.0000e-05
  Last Orbital Rotation      ...    7.7265e-06  Tolerance :   1.0000e-05

             **** THE GBW FILE WAS UPDATED (Keto_enol_ts.gbw) ****
             **** DENSITY Keto_enol_ts.scfp WAS UPDATED ****
             **** ENERGY FILE WAS UPDATED (Keto_enol_ts.en.tmp) ****
             **** THE GBW FILE WAS UPDATED (Keto_enol_ts.gbw) ****
             **** DENSITY Keto_enol_ts.scfp WAS UPDATED ****
----------------
ORBITAL ENERGIES
----------------

  NO   OCC          E(Eh)            E(eV) 
   0   2.0000      -1.468616       -39.9631 
   1   2.0000      -1.160700       -31.5843 
   2   2.0000      -1.017857       -27.6973 
   3   2.0000      -0.720189       -19.5973 
   4   2.0000      -0.633713       -17.2442 
   5   2.0000      -0.592078       -16.1113 
   6   2.0000      -0.591956       -16.1080 
   7   2.0000      -0.515151       -14.0180 
   8   2.0000      -0.507787       -13.8176 
   9   2.0000      -0.462125       -12.5750 
  10   2.0000      -0.445551       -12.1241 
  11   2.0000      -0.358239        -9.7482 
  12   0.0000       0.009361         0.2547 
  13   0.0000       0.085174         2.3177 
  14   0.0000       0.119784         3.2595 
  15   0.0000       0.133773         3.6402 
  16   0.0000       0.134296         3.6544 
  17   0.0000       0.138604         3.7716 
  18   0.0000       0.158400         4.3103 
  19   0.0000       0.173976         4.7341 
  20   0.0000       0.190683         5.1888 
  21   0.0000       0.230426         6.2702 

                    ********************************
                    * MULLIKEN POPULATION ANALYSIS *
                    ********************************

-----------------------
MULLIKEN ATOMIC CHARGES
-----------------------
   0 C :   -0.346199
   1 C :    0.302945
   2 H :    0.143582
   3 H :    0.143329
   4 H :    0.143571
   5 C :   -0.691111
   6 H :    0.161543
   7 H :    0.313792
   8 H :    0.161531
   9 O :   -0.332983
Sum of atomic charges:   -0.0000000

--------------------------------
MULLIKEN REDUCED ORBITAL CHARGES
--------------------------------
  0 C s       :     1.518379  s :     1.518379
      pz      :     0.982171  p :     2.827820
      px      :     0.867979
      py      :     0.977670
  1 C s       :     1.319062  s :     1.319062
      pz      :     0.827201  p :     2.377993
      px      :     0.838987
      py      :     0.711805
  2 H s       :     0.856418  s :     0.856418
  3 H s       :     0.856671  s :     0.856671
  4 H s       :     0.856429  s :     0.856429
  5 C s       :     1.597442  s :     1.597442
      pz      :     1.034789  p :     3.093669
      px      :     1.056337
      py      :     1.002544
  6 H s       :     0.838457  s :     0.838457
  7 H s       :     0.686208  s :     0.686208
  8 H s       :     0.838469  s :     0.838469
  9 O s       :     1.887941  s :     1.887941
      pz      :     1.497687  p :     4.445042
      px      :     1.502020
      py      :     1.445335


                     *******************************
                     * LOEWDIN POPULATION ANALYSIS *
                     *******************************

----------------------
LOEWDIN ATOMIC CHARGES
----------------------
   0 C :   -0.122625
   1 C :    0.295225
   2 H :    0.071479
   3 H :    0.068583
   4 H :    0.071456
   5 C :   -0.465379
   6 H :    0.084059
   7 H :    0.242108
   8 H :    0.084052
   9 O :   -0.328959

-------------------------------
LOEWDIN REDUCED ORBITAL CHARGES
-------------------------------
  0 C s       :     1.126937  s :     1.126937
      pz      :     1.034996  p :     2.995688
      px      :     0.930226
      py      :     1.030465
  1 C s       :     1.221357  s :     1.221357
      pz      :     0.855359  p :     2.483418
      px      :     0.901628
      py      :     0.726430
  2 H s       :     0.928521  s :     0.928521
  3 H s       :     0.931417  s :     0.931417
  4 H s       :     0.928544  s :     0.928544
  5 C s       :     1.238901  s :     1.238901
      pz      :     1.069016  p :     3.226478
      px      :     1.108869
      py      :     1.048594
  6 H s       :     0.915941  s :     0.915941
  7 H s       :     0.757892  s :     0.757892
  8 H s       :     0.915948  s :     0.915948
  9 O s       :     1.862793  s :     1.862793
      pz      :     1.500986  p :     4.466165
      px      :     1.520622
      py      :     1.444558


                      *****************************
                      * MAYER POPULATION ANALYSIS *
                      *****************************

  NA   - Mulliken gross atomic population
  ZA   - Total nuclear charge
  QA   - Mulliken gross atomic charge
  VA   - Mayer's total valence
  BVA  - Mayer's bonded valence
  FA   - Mayer's free valence

  ATOM       NA         ZA         QA         VA         BVA        FA
  0 C      6.6688     4.0000    -2.6688     1.7834    11.6830    -9.8996
  1 C      5.6416     4.0000    -1.6416     2.7536    10.5127    -7.7591
  2 H      1.5551     1.0000    -0.5551     0.6918     3.4547    -2.7629
  3 H      1.5553     1.0000    -0.5553     0.6917     3.3849    -2.6932
  4 H      1.5551     1.0000    -0.5551     0.6918     3.4546    -2.7628
  5 C      6.7623     4.0000    -2.7623     1.6789    10.9109    -9.2320
  6 H      1.5501     1.0000    -0.5501     0.6974     3.2945    -2.5971
  7 H      1.3251     1.0000    -0.3251     0.8943     3.2785    -2.3842
  8 H      1.5501     1.0000    -0.5501     0.6974     3.2946    -2.5972
  9 O      7.0486     6.0000    -1.0486     1.5092     4.0725    -2.5633

  Mayer bond orders larger than 0.100000
B(  0-C ,  1-C ) :   2.9692 B(  0-C ,  2-H ) :   2.8767 B(  0-C ,  3-H ) :   2.8837 
B(  0-C ,  4-H ) :   2.8768 B(  1-C ,  2-H ) :   0.1644 B(  1-C ,  3-H ) :   0.1184 
B(  1-C ,  4-H ) :   0.1643 B(  1-C ,  5-C ) :   2.9546 B(  1-C ,  6-H ) :   0.1204 
B(  1-C ,  7-H ) :   0.4463 B(  1-C ,  8-H ) :   0.1204 B(  1-C ,  9-O ) :   3.4547 
B(  2-H ,  3-H ) :   0.1851 B(  2-H ,  4-H ) :   0.1962 B(  3-H ,  4-H ) :   0.1850 
B(  5-C ,  6-H ) :   2.8724 B(  5-C ,  7-H ) :   2.1115 B(  5-C ,  8-H ) :   2.8724 
B(  6-H ,  8-H ) :   0.1885 B(  7-H ,  9-O ) :   0.5398 

-------
TIMINGS
-------

Total SCF time: 0 days 0 hours 0 min 0 sec 

Total time                  ....       0.355 sec
Sum of individual times     ....       0.028 sec  (  7.8%)

Fock matrix formation       ....       0.023 sec  (  6.5%)
Diagonalization             ....       0.001 sec  (  0.3%)
Density matrix formation    ....       0.000 sec  (  0.0%)
Population analysis         ....       0.001 sec  (  0.3%)
Initial guess               ....       0.000 sec  (  0.1%)
Orbital Transformation      ....       0.000 sec  (  0.0%)
Orbital Orthonormalization  ....       0.000 sec  (  0.0%)
DIIS solution               ....       0.001 sec  (  0.3%)
SOSCF solution              ....       0.001 sec  (  0.3%)

Maximum memory used throughout the entire SCF-calculation: 222.8 MB

-------------------------   --------------------
FINAL SINGLE POINT ENERGY       -27.169177236202
-------------------------   --------------------

------------------------------------------------------------------------------
                          SCF GRADIENT FOR NDO METHODS
------------------------------------------------------------------------------

The cartesian gradient:
   1   C   :   -0.000019408    0.000024368   -0.000039101
   2   C   :    0.000040418   -0.000068915    0.000099594
   3   H   :    0.000007738    0.000000606    0.000001013
   4   H   :   -0.000004521    0.000003039   -0.000006123
   5   H   :    0.000008132   -0.000000924   -0.000000557
   6   C   :   -0.000019961    0.000080994   -0.000121100
   7   H   :   -0.000009970   -0.000053389    0.000030147
   8   H   :   -0.062791159   -0.036059326    0.060504698
   9   H   :   -0.000009753   -0.000001028    0.000060632
  10   O   :    0.062798485    0.036074573   -0.060529202

Norm of the cartesian gradient     ...    0.133464153
RMS gradient                       ...    0.024367109
MAX gradient                       ...    0.062798485

----------------------------------------------------------------------------
                           ORCA NUMERICAL FREQUENCIES
----------------------------------------------------------------------------

Number of atoms                ... 10
Central differences            ... NOT used
Number of displacements        ... 30
Numerical increment            ... 5.000e-03 bohr
IR-spectrum generation         ... on
Raman-spectrum generation      ... off
Surface Crossing Hessian       ... off

The output will be reduced. Please look at the following files:
SCF program output             ... >Keto_enol_ts.lastscf
Integral program output        ... >Keto_enol_ts.lastint
Gradient program output        ... >Keto_enol_ts.lastgrad
Dipole moment program output   ... >Keto_enol_ts.lastmom
AutoCI program output          ... >Keto_enol_ts.lastautoci

	<< Calculating on displaced geometry   1 (of  31) >>
	<< Calculating on displaced geometry   2 (of  31) >>
	<< Calculating on displaced geometry   3 (of  31) >>
	<< Calculating on displaced geometry   4 (of  31) >>
	<< Calculating on displaced geometry   5 (of  31) >>
	<< Calculating on displaced geometry   6 (of  31) >>
	<< Calculating on displaced geometry   7 (of  31) >>
	<< Calculating on displaced geometry   8 (of  31) >>
	<< Calculating on displaced geometry   9 (of  31) >>
	<< Calculating on displaced geometry  10 (of  31) >>
	<< Calculating on displaced geometry  11 (of  31) >>
	<< Calculating on displaced geometry  12 (of  31) >>
	<< Calculating on displaced geometry  13 (of  31) >>
	<< Calculating on displaced geometry  14 (of  31) >>
	<< Calculating on displaced geometry  15 (of  31) >>
	<< Calculating on displaced geometry  16 (of  31) >>
	<< Calculating on displaced geometry  17 (of  31) >>
	<< Calculating on displaced geometry  18 (of  31) >>
	<< Calculating on displaced geometry  19 (of  31) >>
	<< Calculating on displaced geometry  20 (of  31) >>
	<< Calculating on displaced geometry  21 (of  31) >>
	<< Calculating on displaced geometry  22 (of  31) >>
	<< Calculating on displaced geometry  23 (of  31) >>
	<< Calculating on displaced geometry  24 (of  31) >>
	<< Calculating on displaced geometry  25 (of  31) >>
	<< Calculating on displaced geometry  26 (of  31) >>
	<< Calculating on displaced geometry  27 (of  31) >>
	<< Calculating on displaced geometry  28 (of  31) >>
	<< Calculating on displaced geometry  29 (of  31) >>
	<< Calculating on displaced geometry  30 (of  31) >>
	<< Calculating on displaced geometry  31 (of  31) >>

-----------------------
VIBRATIONAL FREQUENCIES
-----------------------

Scaling factor for frequencies =  1.000000000 (already applied!)

   0:         0.00 cm**-1
   1:         0.00 cm**-1
   2:         0.00 cm**-1
   3:         0.00 cm**-1
   4:         0.00 cm**-1
   5:         0.00 cm**-1
   6:     -1822.76 cm**-1 ***imaginary mode***
   7:      -339.36 cm**-1 ***imaginary mode***
   8:        83.74 cm**-1
   9:       339.43 cm**-1
  10:       477.38 cm**-1
  11:       703.60 cm**-1
  12:       870.03 cm**-1
  13:       883.02 cm**-1
  14:       953.85 cm**-1
  15:      1009.68 cm**-1
  16:      1041.70 cm**-1
  17:      1049.61 cm**-1
  18:      1304.07 cm**-1
  19:      1368.38 cm**-1
  20:      1377.73 cm**-1
  21:      1381.16 cm**-1
  22:      1447.55 cm**-1
  23:      1801.51 cm**-1
  24:      2189.52 cm**-1
  25:      3070.95 cm**-1
  26:      3084.11 cm**-1
  27:      3097.98 cm**-1
  28:      3152.93 cm**-1
  29:      3166.65 cm**-1


------------
NORMAL MODES
------------

These modes are the cartesian displacements weighted by the diagonal matrix
M(i,i)=1/sqrt(m[i]) where m[i] is the mass of the displaced atom
Thus, these vectors are normalized but *not* orthogonal

                  0          1          2          3          4          5    
      0       0.000000   0.000000   0.000000   0.000000   0.000000   0.000000
      1       0.000000   0.000000   0.000000   0.000000   0.000000   0.000000
      2       0.000000   0.000000   0.000000   0.000000   0.000000   0.000000
      3       0.000000   0.000000   0.000000   0.000000   0.000000   0.000000
      4       0.000000   0.000000   0.000000   0.000000   0.000000   0.000000
      5       0.000000   0.000000   0.000000   0.000000   0.000000   0.000000
      6       0.000000   0.000000   0.000000   0.000000   0.000000   0.000000
      7       0.000000   0.000000   0.000000   0.000000   0.000000   0.000000
      8       0.000000   0.000000   0.000000   0.000000   0.000000   0.000000
      9       0.000000   0.000000   0.000000   0.000000   0.000000   0.000000
     10       0.000000   0.000000   0.000000   0.000000   0.000000   0.000000
     11       0.000000   0.000000   0.000000   0.000000   0.000000   0.000000
     12       0.000000   0.000000   0.000000   0.000000   0.000000   0.000000
     13       0.000000   0.000000   0.000000   0.000000   0.000000   0.000000
     14       0.000000   0.000000   0.000000   0.000000   0.000000   0.000000
     15       0.000000   0.000000   0.000000   0.000000   0.000000   0.000000
     16       0.000000   0.000000   0.000000   0.000000   0.000000   0.000000
     17       0.000000   0.000000   0.000000   0.000000   0.000000   0.000000
     18       0.000000   0.000000   0.000000   0.000000   0.000000   0.000000
     19       0.000000   0.000000   0.000000   0.000000   0.000000   0.000000
     20       0.000000   0.000000   0.000000   0.000000   0.000000   0.000000
     21       0.000000   0.000000   0.000000   0.000000   0.000000   0.000000
     22       0.000000   0.000000   0.000000   0.000000   0.000000   0.000000
     23       0.000000   0.000000   0.000000   0.000000   0.000000   0.000000
     24       0.000000   0.000000   0.000000   0.000000   0.000000   0.000000
     25       0.000000   0.000000   0.000000   0.000000   0.000000   0.000000
     26       0.000000   0.000000   0.000000   0.000000   0.000000   0.000000
     27       0.000000   0.000000   0.000000   0.000000   0.000000   0.000000
     28       0.000000   0.000000   0.000000   0.000000   0.000000   0.000000
     29       0.000000   0.000000   0.000000   0.000000   0.000000   0.000000
                  6          7          8          9         10         11    
      0       0.000232  -0.000155  -0.000136   0.030136   0.000507   0.276427
      1       0.003392  -0.035922   0.000499   0.096048   0.020507  -0.000776
      2      -0.005738  -0.021412   0.000923  -0.162159   0.010940   0.001274
      3       0.019555  -0.000166  -0.000027   0.015326   0.000380   0.129644
      4      -0.017082   0.064410  -0.018361  -0.088568  -0.219700   0.043348
      5       0.028746   0.038335  -0.011553   0.152863  -0.130106  -0.071952
      6      -0.001174  -0.093075   0.042169   0.232667   0.334671   0.243821
      7       0.001205  -0.071826   0.016126   0.175173   0.148214  -0.018380
      8      -0.001850   0.084763   0.570349  -0.297360   0.066127   0.061158
      9       0.001708   0.000484   0.001906  -0.340136  -0.002394   0.472573
     10       0.002812  -0.182415  -0.444797   0.177015   0.184681  -0.044520
     11      -0.004867  -0.109075  -0.264969  -0.305191   0.108007   0.073295
     12      -0.000990   0.093231  -0.043104   0.239534  -0.331970   0.244319
     13       0.000971   0.040890   0.510519   0.184755   0.130609  -0.045946
     14      -0.002005  -0.102907  -0.254463  -0.300066   0.095162   0.045050
     15       0.017204   0.000039   0.000513  -0.216296  -0.001562  -0.125532
     16      -0.003707  -0.037549  -0.031051  -0.005095  -0.008310   0.073504
     17       0.006270  -0.022249  -0.018488   0.007992  -0.004601  -0.123212
     18       0.007078  -0.327249   0.084731  -0.353804   0.083186  -0.388541
     19      -0.008819   0.259663  -0.144903  -0.005713   0.496884   0.126234
     20       0.009355  -0.154767   0.032752   0.004864  -0.218315  -0.165590
     21       0.244966   0.000052   0.000116  -0.062567  -0.000087  -0.034602
     22       0.493784  -0.610511   0.107738   0.028347   0.003589  -0.100560
     23      -0.831065  -0.362776   0.064137  -0.044995   0.001949   0.164395
     24       0.006934   0.327463  -0.083013  -0.353413  -0.088100  -0.388156
     25      -0.004093  -0.013405  -0.040368  -0.003102   0.043608   0.087070
     26       0.012502   0.301431  -0.142504  -0.002987   0.539411  -0.192224
     27      -0.044058   0.000155  -0.000439   0.168429   0.000802  -0.220024
     28      -0.017550   0.043193   0.036449  -0.036850   0.092298  -0.087387
     29       0.029553   0.025629   0.021526   0.060564   0.055597   0.146437
                 12         13         14         15         16         17    
      0       0.000329   0.000216   0.018992  -0.160699   0.027342  -0.001933
      1       0.053631  -0.058792  -0.069658  -0.006478  -0.016485   0.093962
      2       0.031883  -0.035040   0.116514   0.009482   0.033703   0.054887
      3       0.000024   0.000008  -0.026505   0.083270  -0.025554   0.001689
      4       0.013075   0.013709  -0.004928  -0.021189   0.016304  -0.187995
      5       0.007624   0.008074   0.008613   0.038556  -0.039478  -0.110297
      6      -0.391513   0.294376   0.452955  -0.266673   0.175330  -0.437198
      7      -0.095982   0.053963   0.091123  -0.035988   0.035023  -0.071734
      8      -0.033144   0.041008  -0.139325  -0.014817  -0.034099  -0.047113
      9       0.002053   0.000103  -0.626264  -0.374729  -0.117590   0.000284
     10      -0.136912   0.064580   0.077130   0.036061   0.012563  -0.095305
     11      -0.081292   0.038605  -0.128005  -0.059946  -0.026631  -0.056820
     12       0.391647  -0.293596   0.454348  -0.271418   0.200957   0.421657
     13      -0.075191   0.061797   0.080525   0.031679   0.009158  -0.075319
     14      -0.068361   0.028216  -0.147327   0.024334  -0.049572  -0.038160
     15      -0.000392  -0.000178   0.013615   0.182213   0.109144  -0.002849
     16      -0.088077   0.009656   0.037274   0.085172  -0.069290   0.102362
     17      -0.052174   0.005763  -0.063055  -0.145485   0.122880   0.054343
     18      -0.096299  -0.557865   0.198333  -0.356783  -0.656213  -0.359607
     19       0.288335  -0.060138   0.038248   0.293872  -0.024813  -0.256356
     20      -0.218688   0.015968  -0.057897  -0.276654   0.076227   0.197109
     21      -0.000220  -0.000166  -0.052092   0.052895   0.134161  -0.003753
     22       0.509520   0.361249   0.003709  -0.055963  -0.002026  -0.145844
     23       0.302800   0.214461  -0.005127   0.102248  -0.005193  -0.085842
     24       0.097528   0.558585   0.197720  -0.358744  -0.634050   0.398970
     25      -0.056998  -0.014747   0.033145   0.104245  -0.053239   0.057567
     26       0.358143  -0.058183  -0.059708  -0.383276   0.039465  -0.323959
     27      -0.000171  -0.000125  -0.043958   0.020595  -0.026740   0.001039
     28      -0.011223  -0.002808   0.007605  -0.066729   0.053624   0.030730
     29      -0.006837  -0.001728  -0.012742   0.111471  -0.087927   0.023153
                 18         19         20         21         22         23    
      0      -0.042800  -0.094128   0.002708   0.043000  -0.265906   0.066762
      1       0.021002   0.025078   0.068877   0.026663  -0.022758  -0.011256
      2      -0.035043  -0.041410   0.037755  -0.053397   0.037878   0.019034
      3      -0.121530   0.016719   0.000933   0.020879   0.233802  -0.254017
      4      -0.053117   0.002457   0.000769   0.010134   0.122602   0.159605
      5       0.088098  -0.004208  -0.000507  -0.016932  -0.204910  -0.268020
      6       0.338083   0.281809   0.234775  -0.037951   0.374152   0.027216
      7       0.128853   0.126136   0.112201  -0.014204   0.181075  -0.012850
      8       0.103141   0.385740  -0.339835   0.579394  -0.143330   0.013263
      9       0.529414   0.078604  -0.022834  -0.407710   0.211181  -0.094823
     10      -0.091896  -0.019509  -0.648558   0.137710  -0.100620   0.021472
     11       0.154521   0.026990  -0.401917  -0.146159   0.167626  -0.035772
     12       0.338509   0.279753  -0.238527  -0.010791   0.373201   0.027928
     13      -0.151502  -0.401011  -0.296781  -0.471381   0.039335  -0.006036
     14      -0.064025   0.073817   0.287017   0.254239  -0.225578   0.017599
     15       0.057823   0.029576  -0.002018  -0.035643  -0.139734   0.050549
     16       0.001389   0.048472  -0.002321  -0.034504  -0.081321  -0.018161
     17      -0.001850  -0.081645   0.003155   0.058005   0.136721   0.030644
     18       0.038291  -0.083306   0.003605   0.057713   0.082565  -0.084175
     19       0.374654  -0.451001   0.015995   0.255937   0.290988   0.021594
     20      -0.194140   0.170727  -0.005954  -0.088140  -0.050763   0.013019
     21      -0.104670  -0.029447   0.002825   0.053298   0.328212  -0.768240
     22       0.010660  -0.007399   0.002063  -0.000595  -0.012410   0.190111
     23      -0.017302   0.011965   0.001167   0.001082   0.021293  -0.318891
     24       0.040034  -0.084587   0.002750   0.058375   0.082429  -0.084057
     25      -0.006659   0.064639  -0.002784  -0.044622  -0.094938  -0.021970
     26      -0.423427   0.479579  -0.015272  -0.268425  -0.281496  -0.013261
     27       0.005636   0.008010  -0.000122  -0.003111   0.037540   0.164131
     28       0.006427  -0.013706   0.000986   0.006920  -0.033023  -0.109854
     29      -0.010642   0.023161  -0.000418  -0.011665   0.055029   0.184332
                 24         25         26         27         28         29    
      0      -0.023860   0.001955   0.003209  -0.000004   0.001812   0.044059
      1      -0.001429  -0.087766   0.018468   0.001344   0.000279   0.004533
      2       0.002367  -0.017639  -0.088194   0.001116  -0.000186   0.002811
      3       0.136788   0.000333  -0.000733  -0.000389  -0.002157   0.001140
      4      -0.021652  -0.000043   0.000244   0.000176   0.000248  -0.000191
      5       0.036362   0.000098  -0.000431   0.000113  -0.000678   0.000571
      6      -0.005086  -0.279336   0.049515   0.003571  -0.005556  -0.151258
      7       0.001394   0.785343  -0.138251  -0.010068   0.019219   0.505523
      8       0.002368  -0.005461  -0.043545   0.000359  -0.000030   0.005680
      9       0.004067   0.088859  -0.293322   0.000911  -0.008301  -0.197916
     10      -0.007042   0.074732  -0.378775   0.002043  -0.011540  -0.281258
     11       0.011793  -0.202097   0.604161  -0.001509   0.019756   0.474592
     12      -0.005195   0.167080   0.205107  -0.004220  -0.006582  -0.179558
     13      -0.002793   0.190633   0.298269  -0.005599  -0.010283  -0.279211
     14      -0.000118   0.422317   0.492727  -0.010723  -0.018894  -0.514229
     15       0.014763   0.000216  -0.000333   0.000603   0.003285  -0.000332
     16      -0.017428   0.001119   0.000607   0.085873   0.021180  -0.000986
     17       0.029417   0.000480   0.000423   0.039117  -0.062361   0.002437
     18      -0.020995   0.000617   0.000060   0.016707  -0.022892   0.000645
     19       0.033930  -0.003126  -0.002712  -0.224496   0.359891  -0.013418
     20       0.029534  -0.008137  -0.006228  -0.542874   0.714192  -0.026506
     21      -0.965095   0.000032   0.000143   0.004583   0.027676  -0.000688
     22       0.098463  -0.000609  -0.000437  -0.007305  -0.003574   0.000610
     23      -0.166430  -0.000527   0.000201  -0.002466   0.007451  -0.001263
     24      -0.021068  -0.000227  -0.000410  -0.022831  -0.017178   0.000770
     25      -0.042840  -0.012154  -0.005289  -0.800420  -0.594041   0.022904
     26      -0.015844   0.001138   0.000609   0.064354   0.003317  -0.000270
     27      -0.032016  -0.000433   0.000843  -0.000077  -0.000139  -0.000417
     28       0.025301  -0.000117  -0.000189   0.000283  -0.001155   0.000307
     29      -0.042421  -0.000249   0.000192   0.000763   0.001738  -0.000462


-----------
IR SPECTRUM
-----------

 Mode   freq       eps      Int      T**2         TX        TY        TZ
       cm**-1   L/(mol*cm) km/mol    a.u.
----------------------------------------------------------------------------
  8:     83.74   0.002485   12.56  0.009262  (-0.002262  0.083168  0.048375)
  9:    339.43   0.077408  391.19  0.071167  ( 0.166025 -0.106038  0.179885)
 10:    477.38   0.021053  106.39  0.013762  ( 0.000715 -0.101283 -0.059190)
 11:    703.60   0.006066   30.66  0.002691  ( 0.027073 -0.022277  0.038227)
 12:    870.03   0.000433    2.19  0.000155  (-0.000690 -0.010852 -0.006086)
 13:    883.02   0.001525    7.71  0.000539  (-0.000412 -0.019994 -0.011793)
 14:    953.85   0.013727   69.37  0.004491  (-0.059436 -0.015958  0.026527)
 15:   1009.68   0.082080  414.80  0.025369  ( 0.150538 -0.026837  0.044571)
 16:   1041.70   0.030847  155.89  0.009241  ( 0.072058  0.033338 -0.054196)
 17:   1049.61   0.003965   20.04  0.001179  (-0.001165  0.028346  0.019338)
 18:   1304.07   0.021494  108.62  0.005144  (-0.071283 -0.003974  0.006817)
 19:   1368.38   0.026229  132.55  0.005982  (-0.026025  0.037991 -0.062138)
 20:   1377.73   0.018671   94.35  0.004229  ( 0.001987  0.056705  0.031774)
 21:   1381.16   0.005822   29.42  0.001316  ( 0.023595  0.010973 -0.025267)
 22:   1447.55   0.041539  209.92  0.008955  (-0.065849 -0.034791  0.058382)
 23:   1801.51   0.040751  205.94  0.007059  (-0.018553 -0.041955  0.070388)
 24:   2189.52   0.209482  1058.63  0.029857  (-0.172024 -0.008424  0.013909)
 25:   3070.95   0.136306  688.84  0.013851  (-0.029073  0.111689  0.023054)
 26:   3084.11   0.133254  673.41  0.013483  (-0.003960 -0.024426  0.113450)
 27:   3097.98   0.151395  765.09  0.015250  (-0.026694 -0.119362 -0.017042)
 28:   3152.93   1.319124  6666.31  0.130561  (-0.192961 -0.142505  0.270222)
 29:   3166.65   1.992940  10071.50  0.196398  (-0.443099 -0.004638 -0.006278)

* The epsilon (eps) is given for a Dirac delta lineshape.
** The dipole moment derivative (T) already includes vibrational overlap.

The first frequency considered to be a vibration is 8
The total number of vibrations considered is 22


--------------------------
THERMOCHEMISTRY AT 298.15K
--------------------------

Temperature         ... 298.15 K
Pressure            ... 1.00 atm
Total Mass          ... 58.08 AMU

Throughout the following assumptions are being made:
  (1) The electronic state is orbitally nondegenerate
  (2) There are no thermally accessible electronically excited states
  (3) Hindered rotations indicated by low frequency modes are not
      treated as such but are treated as vibrations and this may
      cause some error
  (4) All equations used are the standard statistical mechanics
      equations for an ideal gas
  (5) All vibrations are strictly harmonic

freq.      83.74  E(vib)   ...       0.48 
freq.     339.43  E(vib)   ...       0.23 
freq.     477.38  E(vib)   ...       0.15 
freq.     703.60  E(vib)   ...       0.07 
freq.     870.03  E(vib)   ...       0.04 
freq.     883.02  E(vib)   ...       0.04 
freq.     953.85  E(vib)   ...       0.03 
freq.    1009.68  E(vib)   ...       0.02 
freq.    1041.70  E(vib)   ...       0.02 
freq.    1049.61  E(vib)   ...       0.02 
freq.    1304.07  E(vib)   ...       0.01 
freq.    1368.38  E(vib)   ...       0.01 
freq.    1377.73  E(vib)   ...       0.01 
freq.    1381.16  E(vib)   ...       0.01 
freq.    1447.55  E(vib)   ...       0.00 
freq.    1801.51  E(vib)   ...       0.00 
freq.    2189.52  E(vib)   ...       0.00 
freq.    3070.95  E(vib)   ...       0.00 
freq.    3084.11  E(vib)   ...       0.00 
freq.    3097.98  E(vib)   ...       0.00 
freq.    3152.93  E(vib)   ...       0.00 
freq.    3166.65  E(vib)   ...       0.00 

------------
INNER ENERGY
------------

The inner energy is: U= E(el) + E(ZPE) + E(vib) + E(rot) + E(trans)
    E(el)   - is the total energy from the electronic structure calculation
              = E(kin-el) + E(nuc-el) + E(el-el) + E(nuc-nuc)
    E(ZPE)  - the the zero temperature vibrational energy from the frequency calculation
    E(vib)  - the the finite temperature correction to E(ZPE) due to population
              of excited vibrational states
    E(rot)  - is the rotational thermal energy
    E(trans)- is the translational thermal energy

Summary of contributions to the inner energy U:
Electronic energy                ...    -27.16917724 Eh
Zero point energy                ...      0.07712639 Eh      48.40 kcal/mol
Thermal vibrational correction   ...      0.00179470 Eh       1.13 kcal/mol
Thermal rotational correction    ...      0.00141627 Eh       0.89 kcal/mol
Thermal translational correction ...      0.00141627 Eh       0.89 kcal/mol
-----------------------------------------------------------------------
Total thermal energy                    -27.08742360 Eh


Summary of corrections to the electronic energy:
(perhaps to be used in another calculation)
Total thermal correction                  0.00462725 Eh       2.90 kcal/mol
Non-thermal (ZPE) correction              0.07712639 Eh      48.40 kcal/mol
-----------------------------------------------------------------------
Total correction                          0.08175363 Eh      51.30 kcal/mol


--------
ENTHALPY
--------

The enthalpy is H = U + kB*T
                kB is Boltzmann's constant
Total free energy                 ...    -27.08742360 Eh 
Thermal Enthalpy correction       ...      0.00094421 Eh       0.59 kcal/mol
-----------------------------------------------------------------------
Total Enthalpy                    ...    -27.08647939 Eh


Note: Only C1 symmetry has been detected, increase convergence thresholds 
      if your molecule has a higher symmetry. Symmetry factor of 1.0 is   
      used for the rotational entropy correction. 
 

Note: Rotational entropy computed according to Herzberg 
Infrared and Raman Spectra, Chapter V,1, Van Nostrand Reinhold, 1945 
Point Group:  C1, Symmetry Number:   1  
Rotational constants in cm-1:     0.415596     0.254285     0.167748 

Vibrational entropy computed according to the QRRHO of S. Grimme
Chem.Eur.J. 2012 18 9955


-------
ENTROPY
-------

The entropy contributions are T*S = T*(S(el)+S(vib)+S(rot)+S(trans))
     S(el)   - electronic entropy
     S(vib)  - vibrational entropy
     S(rot)  - rotational entropy
     S(trans)- translational entropy
The entropies will be listed as multiplied by the temperature to get
units of energy

Electronic entropy                ...      0.00000000 Eh      0.00 kcal/mol
Vibrational entropy               ...      0.00299055 Eh      1.88 kcal/mol
Rotational entropy                ...      0.01141458 Eh      7.16 kcal/mol
Translational entropy             ...      0.01810171 Eh     11.36 kcal/mol
-----------------------------------------------------------------------
Final entropy term                ...      0.03250684 Eh     20.40 kcal/mol

In case the symmetry of your molecule has not been determined correctly
or in case you have a reason to use a different symmetry number we print 
out the resulting rotational entropy values for sn=1,12 :
 --------------------------------------------------------
|  sn= 1 | S(rot)=       0.01141458 Eh      7.16 kcal/mol|
|  sn= 2 | S(rot)=       0.01076012 Eh      6.75 kcal/mol|
|  sn= 3 | S(rot)=       0.01037729 Eh      6.51 kcal/mol|
|  sn= 4 | S(rot)=       0.01010567 Eh      6.34 kcal/mol|
|  sn= 5 | S(rot)=       0.00989498 Eh      6.21 kcal/mol|
|  sn= 6 | S(rot)=       0.00972283 Eh      6.10 kcal/mol|
|  sn= 7 | S(rot)=       0.00957729 Eh      6.01 kcal/mol|
|  sn= 8 | S(rot)=       0.00945121 Eh      5.93 kcal/mol|
|  sn= 9 | S(rot)=       0.00934000 Eh      5.86 kcal/mol|
|  sn=10 | S(rot)=       0.00924052 Eh      5.80 kcal/mol|
|  sn=11 | S(rot)=       0.00915053 Eh      5.74 kcal/mol|
|  sn=12 | S(rot)=       0.00906838 Eh      5.69 kcal/mol|
 --------------------------------------------------------


-------------------
GIBBS FREE ENERGY
-------------------

The Gibbs free energy is G = H - T*S

Total enthalpy                    ...    -27.08647939 Eh 
Total entropy correction          ...     -0.03250684 Eh    -20.40 kcal/mol
-----------------------------------------------------------------------
Final Gibbs free energy         ...    -27.11898624 Eh

For completeness - the Gibbs free energy minus the electronic energy
G-E(el)                           ...      0.05019100 Eh     31.50 kcal/mol


Actual Hessian File stored as Keto_enol_ts.001.hess
------------------------------------------------------------------------------
                         ORCA GEOMETRY RELAXATION STEP
------------------------------------------------------------------------------

Reading the OPT-File                    .... done
Getting information on internals        .... done
Copying old internal coords+grads       .... done
Making the new internal coordinates     .... (new redundants).... done
Validating the new internal coordinates .... (new redundants).... done
Calculating the B-matrix                .... done
Calculating the G,G- and P matrices     .... done
Transforming gradient to internals      .... done
Projecting the internal gradient        .... done
Number of atoms                         ....  10
Number of internal coordinates          ....  45
Current Energy                          ....   -27.169177236 Eh
Current gradient norm                   ....     0.133464153 Eh/bohr
Maximum allowed component of the step   ....  0.300
Current trust radius                    ....  0.300
Evaluating the initial hessian          ....  (read) 
(Reading Exact Hessian)...  
InHessName: Keto_enol_ts.hess	The file <Keto_enol_ts.hess> is opened as a .hess file
done
done
Diagonalizing the Hessian               .... done
Dimension of the hessian                .... 45
Lowest eigenvalues of the non projected Hessian:
 -0.092022365 -0.009709015 -0.000000000 -0.000000000 -0.000000000
done
Projecting the Hessian                  .... done
Diagonalizing the Hessian               .... done
Dimension of the hessian                ....  45
Lowest eigenvalues of the Hessian:
 -0.092022365 -0.009709015  0.001175957  0.014991085  0.019923890
Hessian has   2 negative eigenvalues
Taking P-RFO step
Searching for lambda that maximizes along the lowest mode
TS mode is mode number   0 with eigenvalue  -0.09202237 and components:
   1.   -0.01574119
   2.   -0.00077809
   3.    0.00330027
   4.   -0.00058701
   5.   -0.06280047
   6.    0.00409207
   7.    0.51897255
   8.    0.00476742
   9.   -0.78432881
  10.    0.06234043
  11.   -0.00742214
  12.    0.00119843
  13.    0.00209811
  14.    0.00368111
  15.    0.00035169
  16.    0.00059287
  17.    0.11633005
  18.   -0.07571311
  19.   -0.04061699
  20.    0.05954863
  21.   -0.02289130
  22.    0.02171353
  23.    0.06005154
  24.   -0.17334503
  25.    0.02156110
  26.    0.05954502
  27.    0.18951310
  28.   -0.00059726
  29.   -0.00354543
  30.    0.00247087
  31.    0.00292340
  32.   -0.00014473
  33.   -0.00399796
  34.   -0.00601807
  35.    0.00639041
  36.    0.00602444
  37.    0.00008682
  38.   -0.00027916
  39.   -0.00565209
  40.   -0.06348990
  41.    0.06351931
  42.   -0.00012172
  43.    0.00012447
  44.   -0.00012736
  45.    0.00020220

Lambda that maximizes along the TS mode:       0.04112093
Searching for lambda that minimizes along all other modes
In cycle   1: lambdaN =  -0.01449025   step =  -0.04521877
In cycle   2: lambdaN =  -0.01576728   step =   0.00127703
In cycle   3: lambdaN =  -0.01576960   step =   0.00000232
In cycle   4: lambdaN =  -0.01576960   step =   0.00000000
Lambda that minimizes along all other modes:  -0.01576960
Calculated stepsize too large (   0.5101 >    0.3000). Scaled with    0.5881.
The final length of the internal step   ....       0.3000
Converting the step to cartesian space:
 Initial RMS(Int)=    0.0447213595
Transforming coordinates:
 Iter   0:  RMS(Cart)=    0.0604530714 RMS(Int)=    0.0437753422
 Iter   1:  RMS(Cart)=    0.0036108318 RMS(Int)=    0.0030992992
 Iter   2:  RMS(Cart)=    0.0002232921 RMS(Int)=    0.0002244389
 Iter   3:  RMS(Cart)=    0.0000247114 RMS(Int)=    0.0000235840
 Iter   4:  RMS(Cart)=    0.0000018100 RMS(Int)=    0.0000018129
 Iter   5:  RMS(Cart)=    0.0000001793 RMS(Int)=    0.0000001773
 Iter   6:  RMS(Cart)=    0.0000000139 RMS(Int)=    0.0000000136
done
Storing new coordinates                 .... done

                                .--------------------.
          ----------------------|Geometry convergence|-------------------------
          Item                value                   Tolerance       Converged
          ---------------------------------------------------------------------
          RMS gradient        0.0129387987            0.0001000000      NO
          MAX gradient        0.0798470850            0.0003000000      NO
          RMS step            0.0447213595            0.0020000000      NO
          MAX step            0.1764418818            0.0040000000      NO
          ........................................................
          Max(Bonds)      0.0934      Max(Angles)    5.11
          Max(Dihed)        1.70      Max(Improp)    0.00
          ---------------------------------------------------------------------

The optimization has not yet converged - more geometry cycles are needed


    ---------------------------------------------------------------------------
                         Redundant Internal Coordinates
                            (Angstroem and degrees)

        Definition                    Value    dE/dq     Step     New-Value  comp.(TS mode)
    ----------------------------------------------------------------------------
     1. B(C   1,C   0)                1.4748  0.000008  0.0003    1.4751   
     2. B(H   2,C   0)                1.0983 -0.000002 -0.0010    1.0973   
     3. B(H   3,C   0)                1.0976 -0.000005  0.0022    1.0998   
     4. B(H   4,C   0)                1.0983 -0.000002 -0.0009    1.0973   
     5. B(C   5,C   1)                1.4899 -0.014526 -0.0117    1.4782   
     6. B(H   6,C   5)                1.0898 -0.000006  0.0022    1.0920   
     7. B(H   7,C   5)                1.3055  0.005251  0.0934    1.3988          0.52
     8. B(H   8,C   5)                1.0899 -0.000006  0.0025    1.0924   
     9. B(O   9,H   7)                1.3359 -0.079847 -0.0837    1.2522          0.78
    10. B(O   9,C   1)                1.2488 -0.003696  0.0076    1.2564   
    11. A(C   1,C   0,H   3)          113.21  0.000015   -1.12    112.10   
    12. A(C   1,C   0,H   2)          109.77 -0.000012    0.52    110.29   
    13. A(C   1,C   0,H   4)          109.78 -0.000012    0.57    110.35   
    14. A(H   2,C   0,H   4)          107.64  0.000008    0.41    108.05   
    15. A(H   3,C   0,H   4)          108.14  0.000001   -0.17    107.97   
    16. A(H   2,C   0,H   3)          108.14  0.000000   -0.17    107.97   
    17. A(C   0,C   1,C   5)          131.50  0.007001    3.81    135.31   
    18. A(C   5,C   1,O   9)          100.65 -0.014181    1.01    101.66   
    19. A(C   0,C   1,O   9)          127.85  0.007181   -4.82    123.03   
    20. A(H   7,C   5,H   8)          118.77  0.003143    1.85    120.62   
    21. A(H   6,C   5,H   8)          109.51 -0.001157   -1.05    108.46   
    22. A(C   1,C   5,H   8)          116.49  0.002599   -0.37    116.12   
    23. A(H   6,C   5,H   7)          118.78  0.003144    1.89    120.66   
    24. A(C   1,C   5,H   7)           72.84 -0.012772   -2.20     70.65   
    25. A(C   1,C   5,H   6)          116.50  0.002596   -0.37    116.13   
    26. A(C   5,H   7,O   9)          106.29  0.015002   -3.91    102.38   
    27. A(C   1,O   9,H   7)           80.21  0.011951    5.11     85.32   
    28. D(O   9,C   1,C   0,H   3)     -0.08 -0.000001   -0.09     -0.17   
    29. D(C   5,C   1,C   0,H   2)    -59.14  0.000003   -0.62    -59.76   
    30. D(O   9,C   1,C   0,H   4)   -121.03 -0.000004    0.47   -120.56   
    31. D(C   5,C   1,C   0,H   4)     58.98 -0.000002    0.54     59.52   
    32. D(C   5,C   1,C   0,H   3)    179.93  0.000001   -0.03    179.90   
    33. D(O   9,C   1,C   0,H   2)    120.85  0.000001   -0.69    120.16   
    34. D(H   6,C   5,C   1,C   0)    -65.85 -0.001978    1.23    -64.62   
    35. D(H   8,C   5,C   1,O   9)   -114.13  0.001977   -1.20   -115.33   
    36. D(H   8,C   5,C   1,C   0)     65.87  0.001977   -1.26     64.61   
    37. D(H   7,C   5,C   1,O   9)      0.01 -0.000000    0.02      0.03   
    38. D(H   7,C   5,C   1,C   0)    180.00 -0.000001   -0.03    179.97   
    39. D(H   6,C   5,C   1,O   9)    114.15 -0.001977    1.29    115.44   
    40. D(O   9,H   7,C   5,H   8)    111.28 -0.003381   -1.70    109.58   
    41. D(O   9,H   7,C   5,H   6)   -111.30  0.003379    1.65   -109.65   
    42. D(O   9,H   7,C   5,C   1)     -0.01 -0.000004   -0.02     -0.03   
    43. D(C   1,O   9,H   7,C   5)      0.01  0.000003    0.03      0.03   
    44. D(H   7,O   9,C   1,C   5)     -0.01 -0.000003   -0.02     -0.03   
    45. D(H   7,O   9,C   1,C   0)   -180.00 -0.000002    0.03   -179.97   
    ----------------------------------------------------------------------------

         *************************************************************
         *                GEOMETRY OPTIMIZATION CYCLE   2            *
         *************************************************************
---------------------------------
CARTESIAN COORDINATES (ANGSTROEM)
---------------------------------
  C     -0.003388    0.001745   -0.003329
  C      1.469658    0.041123   -0.069602
  H     -0.410372    1.020436    0.024509
  H     -0.363265   -0.531918    0.888479
  H     -0.411761   -0.503237   -0.887844
  C      2.472238    0.594293   -0.997709
  H      2.488360    0.159891   -1.999512
  H      3.143280   -0.038983    0.066097
  H      2.488171    1.682478   -1.092149
  O      2.212791   -0.470682    0.791500

----------------------------
CARTESIAN COORDINATES (A.U.)
----------------------------
  NO LB      ZA    FRAG     MASS         X           Y           Z
   0 C     4.0000    0    12.011   -0.006402    0.003297   -0.006290
   1 C     4.0000    0    12.011    2.777250    0.077711   -0.131529
   2 H     1.0000    0     1.008   -0.775490    1.928345    0.046315
   3 H     1.0000    0     1.008   -0.686471   -1.005179    1.678982
   4 H     1.0000    0     1.008   -0.778115   -0.950979   -1.677782
   5 C     4.0000    0    12.011    4.671853    1.123052   -1.885397
   6 H     1.0000    0     1.008    4.702318    0.302151   -3.778529
   7 H     1.0000    0     1.008    5.939939   -0.073667    0.124905
   8 H     1.0000    0     1.008    4.701962    3.179422   -2.063863
   9 O     6.0000    0    15.999    4.181569   -0.889460    1.495718

--------------------------------
INTERNAL COORDINATES (ANGSTROEM)
--------------------------------
 C      0   0   0     0.000000000000     0.00000000     0.00000000
 C      1   0   0     1.475060927318     0.00000000     0.00000000
 H      1   2   0     1.097334713248   110.28769366     0.00000000
 H      1   2   3     1.099830833002   112.09535111   239.66413796
 H      1   2   3     1.097334036282   110.34739351   119.28616240
 C      2   1   3     1.473956816724   135.85478502   300.23565531
 H      6   2   1     1.092049965901   116.00108901   295.47408629
 H      6   2   1     1.408197294827    71.31774782   179.96564704
 H      6   2   1     1.092390844586   115.98962814    64.51164728
 O      2   1   3     1.247272066557   123.57441385   120.16112647

---------------------------
INTERNAL COORDINATES (A.U.)
---------------------------
 C      0   0   0     0.000000000000     0.00000000     0.00000000
 C      1   0   0     2.787461183479     0.00000000     0.00000000
 H      1   2   0     2.073662085284   110.28769366     0.00000000
 H      1   2   3     2.078379068016   112.09535111   239.66413796
 H      1   2   3     2.073660806003   110.34739351   119.28616240
 C      2   1   3     2.785374716834   135.85478502   300.23565531
 H      6   2   1     2.063675360110   116.00108901   295.47408629
 H      6   2   1     2.661107229752    71.31774782   179.96564704
 H      6   2   1     2.064319527470   115.98962814    64.51164728
 O      2   1   3     2.357002620282   123.57441385   120.16112647

------------------------------------------------------------------------------
                           ORCA NDO INTEGRAL CALCULATION
------------------------------------------------------------------------------

--------------
NDO PARAMETERS
--------------

Gamma integral treatment              ... MOPAC
Nuclear repulsuion treatment          ... AM1-style
Interaction factors:
s-s (sigma) =    1.0000
s-p (sigma) =    1.0000
s-d (sigma) =    1.0000
p-p (sigma) =    1.0000  p-p(pi) =    1.0000
p-d (sigma) =    1.0000  p-d(pi) =    1.0000
d-d (sigma) =    1.0000  d-d(pi) =    1.0000 d-d (delta) =    1.0000

--------------------------
Parameters for Element H :
--------------------------
 One-electron parameters (in eV)
  U(s)  =   -13.073321 Beta(s) =     5.626512 Neff(s) =     1.000000
 One-center electron repulsion parameters (in eV)
  G(s,s)=    14.794208
--------------------------
Parameters for Element C :
--------------------------
 One-electron parameters (in eV)
  U(s)  =   -47.270320 Beta(s) =    11.910015 Neff(s) =     2.000000
  U(p)  =   -36.266918 Beta(p) =     9.802755 Neff(p) =     2.000000 
 One-center electron repulsion parameters (in eV)
  G(s,s)=    11.200708
  G(s,p)=    10.265027 G(p,p)  =     9.627141
 Slater-Condon parameters (in eV)
 F2(p,p)=     7.3072 G1(s,p)=    6.8729
--------------------------
Parameters for Element O :
--------------------------
 One-electron parameters (in eV)
  U(s)  =   -86.993002 Beta(s) =    45.202651 Neff(s) =     2.000000
  U(p)  =   -71.879580 Beta(p) =    24.752515 Neff(p) =     4.000000 
 One-center electron repulsion parameters (in eV)
  G(s,s)=    15.755760
  G(s,p)=    10.621160 G(p,p)  =    12.822069
 Slater-Condon parameters (in eV)
 F2(p,p)=     5.1997 G1(s,p)=    1.7816

 Number of atoms                    ....   10
 Number of basis functions          ....   22

 Overlap integrals                  .... done
 One electron matrix                .... done
 Nuclear repulsion                  .... done
 Integral list                      .... done
 Electron-electron repulsion        .... done

Diagonalization of the overlap matrix:
Smallest eigenvalue                        ... 1.835e-01
Time for diagonalization                   ...    0.000 sec
Threshold for overlap eigenvalues          ... 1.000e-08
Number of eigenvalues below threshold      ... 0
Time for construction of square roots      ...    0.000 sec
Total time needed                          ...    0.000 sec


 InCore treatment chosen:
   Memory dedicated               ...    1024 MB
   Memory needed                  ...      0 MB
   Number of tiny    integrals    ...       0
   Number of small   integrals    ...       0
   Number of regular integrals    ...     925

--------------
SCF ITERATIONS
--------------
ITER       Energy         Delta-E        Max-DP      RMS-DP      [F,P]     Damp
  0    -27.1491728144   0.000000000000 0.01027561  0.00102882  0.0313773 0.7000
  1    -27.1503549222  -0.001182107812 0.01113438  0.00109060  0.0259755 0.7000
                               ***Turning on DIIS***
  2    -27.1514604024  -0.001105480171 0.03356460  0.00325414  0.0208690 0.0000
  3    -27.1587388906  -0.007278488185 0.01991084  0.00196625  0.0078238 0.0000
  4    -27.1570814189   0.001657471714 0.01056404  0.00112706  0.0039110 0.0000
  5    -27.1565768414   0.000504577436 0.00626876  0.00076763  0.0022849 0.0000
                      *** Initiating the SOSCF procedure ***
                           *** Shutting down DIIS ***
                      *** Re-Reading the Fockian *** 
                      *** Removing any level shift *** 
ITER      Energy       Delta-E        Grad      Rot      Max-DP    RMS-DP
  6    -27.15649184   0.0000850052  0.002308  0.002308  0.003429  0.000490
  7    -27.15634105   0.0001507825  0.000588  0.001240  0.001352  0.000194
  8    -27.15634731  -0.0000062554  0.000365  0.002070  0.002149  0.000327
  9    -27.15635141  -0.0000040988  0.000023  0.000043  0.000081  0.000011
 10    -27.15635143  -0.0000000218  0.000014  0.000056  0.000053  0.000010
                 **** Energy Check signals convergence ****
              ***Rediagonalizing the Fockian in SOSCF/NRSCF***

               *****************************************************
               *                     SUCCESS                       *
               *           SCF CONVERGED AFTER  11 CYCLES          *
               *****************************************************

Total Energy       :          -27.15635144 Eh            -738.96189 eV
  Last Energy change         ...   -6.3115e-09  Tolerance :   1.0000e-08
  Last MAX-Density change    ...    9.6722e-06  Tolerance :   1.0000e-07
             **** THE GBW FILE WAS UPDATED (Keto_enol_ts.gbw) ****
             **** DENSITY Keto_enol_ts.scfp WAS UPDATED ****
             **** ENERGY FILE WAS UPDATED (Keto_enol_ts.en.tmp) ****
             **** THE GBW FILE WAS UPDATED (Keto_enol_ts.gbw) ****
             **** DENSITY Keto_enol_ts.scfp WAS UPDATED ****
Total SCF time: 0 days 0 hours 0 min 0 sec 

Maximum memory used throughout the entire SCF-calculation: 222.8 MB

-------------------------   --------------------
FINAL SINGLE POINT ENERGY       -27.156351436039
-------------------------   --------------------

------------------------------------------------------------------------------
                          SCF GRADIENT FOR NDO METHODS
------------------------------------------------------------------------------

The cartesian gradient:
   1   C   :    0.001288158   -0.000861369    0.001479767
   2   C   :    0.010575106   -0.003029886    0.004940233
   3   H   :    0.000004127   -0.000478820    0.000697084
   4   H   :    0.000981760   -0.000496999    0.000829401
   5   H   :   -0.000041665   -0.000393460    0.000745374
   6   C   :    0.002325519   -0.006629435    0.010924569
   7   H   :   -0.001117678    0.000050795   -0.000555707
   8   H   :   -0.044262086   -0.021417816    0.035935704
   9   H   :   -0.001097715    0.000663318   -0.000327802
  10   O   :    0.031344474    0.032593672   -0.054668623

Norm of the cartesian gradient     ...    0.095226386
RMS gradient                       ...    0.017385880
MAX gradient                       ...    0.054668623
------------------------------------------------------------------------------
                         ORCA GEOMETRY RELAXATION STEP
------------------------------------------------------------------------------

Reading the OPT-File                    .... done
Getting information on internals        .... done
Copying old internal coords+grads       .... done
Making the new internal coordinates     .... (new redundants).... done
Validating the new internal coordinates .... (new redundants).... done
Calculating the B-matrix                .... done
Calculating the G,G- and P matrices     .... done
Transforming gradient to internals      .... done
Projecting the internal gradient        .... done
Number of atoms                         ....  10
Number of internal coordinates          ....  45
Current Energy                          ....   -27.156351436 Eh
Current gradient norm                   ....     0.095226386 Eh/bohr
Maximum allowed component of the step   ....  0.300
Current trust radius                    ....  0.300
Updating the Hessian (Bofill)          .... Diagonalizing the Hessian               .... done
Dimension of the hessian                ....  45
Lowest eigenvalues of the Hessian:
 -0.112377055 -0.009708905  0.001175853  0.014994252  0.019923854
Hessian has   2 negative eigenvalues
Taking P-RFO step
Searching for lambda that maximizes along the lowest mode
TS mode is mode number   0 with eigenvalue  -0.11237705 and components:
   1.   -0.01368322
   2.    0.00238594
   3.   -0.00086678
   4.    0.00231518
[...]
     16       0.000000   0.000000   0.000000   0.000000   0.000000   0.000000
     17       0.000000   0.000000   0.000000   0.000000   0.000000   0.000000
     18       0.000000   0.000000   0.000000   0.000000   0.000000   0.000000
     19       0.000000   0.000000   0.000000   0.000000   0.000000   0.000000
     20       0.000000   0.000000   0.000000   0.000000   0.000000   0.000000
     21       0.000000   0.000000   0.000000   0.000000   0.000000   0.000000
     22       0.000000   0.000000   0.000000   0.000000   0.000000   0.000000
     23       0.000000   0.000000   0.000000   0.000000   0.000000   0.000000
     24       0.000000   0.000000   0.000000   0.000000   0.000000   0.000000
     25       0.000000   0.000000   0.000000   0.000000   0.000000   0.000000
     26       0.000000   0.000000   0.000000   0.000000   0.000000   0.000000
     27       0.000000   0.000000   0.000000   0.000000   0.000000   0.000000
     28       0.000000   0.000000   0.000000   0.000000   0.000000   0.000000
     29       0.000000   0.000000   0.000000   0.000000   0.000000   0.000000
                  6          7          8          9         10         11    
      0       0.001348   0.000236   0.044059  -0.015382   0.039995   0.167888
      1      -0.003407  -0.004903   0.004978   0.081054   0.003768   0.010160
      2      -0.000400  -0.004173  -0.104001  -0.099411   0.013239   0.015520
      3      -0.008795   0.000415   0.040845  -0.006761   0.055083   0.093869
      4       0.018283  -0.006578   0.052389  -0.145950  -0.228855   0.036442
      5      -0.055489  -0.001205   0.094339   0.070893  -0.136519  -0.023866
      6       0.002810   0.022344   0.003950   0.250611   0.357962   0.185852
      7      -0.000710   0.070150  -0.022464   0.197864   0.166264   0.020623
      8       0.001636   0.570194  -0.175645  -0.205440   0.103847   0.050132
      9       0.004456   0.027280  -0.093292  -0.281486   0.097765   0.252590
     10      -0.000891  -0.499630  -0.040614   0.194667   0.180269   0.021914
     11       0.001044  -0.237445  -0.188453  -0.163255   0.127173   0.059603
     12      -0.005456  -0.052333   0.242914  -0.010789  -0.378576   0.114476
     13      -0.000182   0.479544   0.002968   0.164657   0.095066  -0.001222
     14      -0.000013  -0.332811  -0.183250  -0.162815   0.119602   0.049295
     15      -0.046357   0.001273  -0.150012  -0.099037  -0.044703  -0.071635
     16       0.005140  -0.042961  -0.008038  -0.001999   0.045707   0.081553
     17      -0.008065  -0.017432  -0.031631   0.043908  -0.035413  -0.098164
     18      -0.048839   0.010898  -0.527090  -0.034112  -0.078198  -0.196669
     19       0.056808  -0.098492   0.301113  -0.263311   0.567670  -0.441025
     20      -0.004192  -0.013990   0.029099   0.054482  -0.078840  -0.019648
     21      -0.346793   0.000518   0.070011  -0.020880   0.117068  -0.031967
     22      -0.229776   0.019791  -0.209318   0.280106   0.127426   0.390477
     23       0.876401   0.013989  -0.256490   0.132999  -0.042358   0.288304
     24       0.147041  -0.010633   0.397372  -0.563615   0.168998  -0.164238
     25      -0.143982  -0.027490  -0.351075   0.310837  -0.138346   0.189718
     26       0.042645  -0.055951  -0.078633  -0.037749   0.312842  -0.493301
     27       0.055940  -0.001323   0.042965   0.132573  -0.055776  -0.152815
     28       0.005055   0.044407  -0.016910  -0.005526   0.071767  -0.107582
     29      -0.009795   0.020654   0.084766   0.012499   0.084972   0.084094
                 12         13         14         15         16         17    
      0      -0.082833   0.027791  -0.070254  -0.023233   0.033914   0.153352
      1      -0.033483   0.052889   0.086508  -0.057331   0.072683  -0.002132
      2      -0.028760   0.071454  -0.016309   0.107322   0.035784  -0.046949
      3      -0.002855  -0.010291   0.031120  -0.006952  -0.020769  -0.104911
      4      -0.016628  -0.047052  -0.042008  -0.001634  -0.156775   0.043826
      5       0.002461  -0.012865  -0.012387   0.001148  -0.081737   0.020816
      6       0.058550  -0.149805  -0.601859   0.354361  -0.234249   0.337254
      7       0.044336  -0.053861  -0.159463   0.094641  -0.067985   0.084464
      8       0.032889  -0.090113   0.038232  -0.130622  -0.026918   0.057986
      9      -0.057804  -0.163826   0.174370  -0.620646   0.100825   0.490166
     10       0.065600  -0.085339  -0.107301   0.024638  -0.089470   0.027614
     11       0.033459  -0.085483   0.000680  -0.118266  -0.018396   0.103893
     12      -0.365692   0.544500   0.080828   0.295775   0.420294   0.082707
     13       0.021279  -0.007817  -0.085255   0.086449  -0.041070  -0.024795
     14       0.045617  -0.092515   0.041358  -0.123505  -0.036003   0.013714
     15      -0.012330  -0.097869   0.048196   0.086768   0.025786  -0.078875
     16       0.082563   0.019896  -0.051309  -0.017089   0.081172  -0.126984
     17       0.049174  -0.035075  -0.010071  -0.009375   0.115219   0.176788
     18       0.134672   0.596871  -0.279680  -0.316094  -0.391357  -0.178112
     19      -0.396510  -0.100900   0.263936   0.220815  -0.352578   0.009023
     20       0.063878  -0.183862   0.032156   0.057981   0.264206   0.201565
     21       0.127642   0.072274   0.167514   0.051032  -0.102883   0.164387
     22       0.316472   0.211945   0.552748   0.285679  -0.448563   0.498484
     23      -0.006425  -0.007371   0.207946   0.139550  -0.141809   0.090260
     24       0.600842   0.196233   0.013064   0.113498   0.136969   0.099977
     25      -0.249065  -0.210400   0.003766   0.011318   0.043963  -0.236288
     26      -0.330253   0.253602  -0.075147  -0.206107  -0.275572   0.270046
     27       0.042197  -0.008732   0.021281  -0.034787  -0.024791  -0.039929
     28      -0.011895  -0.003797  -0.024401   0.011510   0.062405   0.041444
     29      -0.007040  -0.004690   0.013654  -0.050392  -0.037227  -0.159565
                 18         19         20         21         22         23    
      0      -0.031488   0.122893   0.013482  -0.099322   0.122312   0.142997
      1       0.008525  -0.009744   0.076956  -0.011721   0.020080   0.006815
      2      -0.022286   0.053423   0.016488   0.058600  -0.036345   0.026738
      3      -0.076942  -0.016410   0.000727  -0.003082  -0.216301  -0.396629
      4      -0.036807  -0.015105  -0.001568   0.009085  -0.147547   0.119499
      5       0.044280   0.017049   0.002702  -0.011533   0.290062  -0.332257
      6       0.216900  -0.352906   0.203654   0.231533  -0.105098   0.010055
      7       0.111570  -0.242611   0.093841   0.055025  -0.064830  -0.034042
      8       0.062828  -0.471176  -0.219121  -0.596724   0.058441   0.018247
      9       0.334110  -0.109600  -0.066770   0.506142   0.105987  -0.202176
     10      -0.017887  -0.026900  -0.653066  -0.248471   0.022043   0.029067
     11       0.105771  -0.063058  -0.361209   0.133103  -0.022073  -0.096587
     12       0.244699  -0.430065  -0.222949   0.075113  -0.138899   0.043374
     13      -0.085997   0.436739  -0.367234   0.306992  -0.014765   0.012289
     14      -0.035514  -0.114078   0.382443  -0.252080   0.077608   0.038345
     15       0.008282  -0.022564  -0.005208   0.023777   0.166483   0.071530
     16      -0.010186  -0.020636  -0.003110   0.016304   0.111658  -0.015573
     17       0.012133   0.041580   0.006504  -0.035293  -0.238270   0.014297
     18       0.323819   0.170588   0.026712  -0.121029  -0.253412  -0.196066
     19       0.431742   0.206836   0.025653  -0.129621  -0.183933  -0.086514
     20      -0.141603  -0.041796  -0.005745   0.022907  -0.093791   0.080494
     21      -0.169084  -0.057602  -0.006326   0.025802  -0.522228  -0.331294
     22      -0.028135  -0.026958  -0.006429   0.035785   0.162625   0.411042
     23      -0.015632  -0.001852   0.002057  -0.002755   0.051581  -0.440090
     24       0.048076   0.006535  -0.002053   0.006855   0.310504   0.030218
     25       0.100061   0.031865   0.004066  -0.019429  -0.093234   0.038546
     26      -0.616549  -0.296891  -0.037994   0.193200   0.401227   0.091849
     27       0.012274  -0.014296  -0.002490   0.013387  -0.016423   0.177404
     28      -0.003338   0.010270   0.002641  -0.010279   0.022710  -0.106474
     29       0.014747  -0.021820  -0.004196   0.022811  -0.041397   0.238019
                 24         25         26         27         28         29    
      0       0.022928  -0.006035   0.001846  -0.000293  -0.044047  -0.000895
      1       0.001369   0.079921  -0.039956   0.000196  -0.003440  -0.000098
      2      -0.002842   0.039673   0.080776  -0.000942   0.002132  -0.000338
      3      -0.109697   0.000120   0.000756   0.000465  -0.000963  -0.003241
      4      -0.007977   0.000123  -0.000203  -0.000423   0.000003  -0.000510
      5       0.012876  -0.000205   0.000379   0.000133  -0.000149   0.000994
      6       0.003214   0.281848  -0.183458   0.003139   0.208717   0.005167
      7      -0.004568  -0.616623   0.410139  -0.007953  -0.527000  -0.012742
      8       0.003209   0.091278  -0.007210   0.000348   0.055870   0.001368
      9       0.008914   0.003034   0.277004   0.000252   0.185403   0.004279
     10       0.003972   0.045662   0.326025   0.000114   0.253334   0.005360
     11      -0.006260   0.003802  -0.663981  -0.000523  -0.516648  -0.011029
     12      -0.007253  -0.213477  -0.115323   0.003408   0.135944   0.003743
     13       0.000353  -0.387915  -0.259489   0.006807   0.315514   0.008503
     14       0.005316  -0.570821  -0.292135   0.008810   0.435294   0.011782
     15       0.009392  -0.000231  -0.000078  -0.047039   0.001137  -0.010388
     16       0.030488   0.000014  -0.000492  -0.064565   0.000777   0.002445
     17      -0.039870  -0.000038  -0.000374  -0.024630   0.001831  -0.077785
     18      -0.006565   0.000559   0.000945   0.023261  -0.005995   0.240425
     19      -0.009850   0.000109   0.000331  -0.010291  -0.002872   0.118328
     20      -0.055330   0.001655   0.003267   0.138472  -0.023322   0.945075
     21       0.897353  -0.000712  -0.000380   0.024016  -0.000786   0.011235
     22      -0.279945   0.000689   0.000007  -0.032387  -0.000206   0.001115
     23       0.295223   0.000741  -0.000243   0.017736  -0.000091  -0.002589
     24      -0.055792   0.001549   0.004844   0.523812  -0.003845  -0.092791
     25       0.035823   0.002009   0.006613   0.822669  -0.005558  -0.129417
     26      -0.076144   0.000029   0.000965   0.140977  -0.000416  -0.052622
     27       0.005175   0.000027  -0.000864  -0.001224   0.000210   0.000063
     28      -0.001912   0.000134   0.000047  -0.000436  -0.000095  -0.000822
     29       0.011940   0.000220  -0.000203  -0.000170   0.000244   0.001705


-----------
IR SPECTRUM
-----------

 Mode   freq       eps      Int      T**2         TX        TY        TZ
       cm**-1   L/(mol*cm) km/mol    a.u.
----------------------------------------------------------------------------
  7:     71.43   0.004931   24.92  0.021542  (-0.001781  0.128335  0.071200)
  8:    346.97   0.041717  210.82  0.037520  ( 0.112823  0.013047  0.156911)
  9:    398.13   0.048066  242.91  0.037675  ( 0.132405 -0.106478  0.093843)
 10:    527.06   0.017364   87.75  0.010281  ( 0.018936 -0.085822 -0.050569)
 11:    661.76   0.009591   48.47  0.004523  (-0.011328 -0.023433  0.062011)
 12:    837.21   0.005248   26.52  0.001956  (-0.026315  0.032389  0.014646)
 13:    939.74   0.022066  111.51  0.007327  (-0.079912  0.029025  0.009957)
 14:    954.05   0.020573  103.97  0.006729  ( 0.080140  0.010447 -0.014060)
 15:    984.96   0.001345    6.80  0.000426  (-0.000275 -0.018314  0.009528)
 16:   1053.89   0.005836   29.49  0.001728  (-0.030938  0.027182  0.005653)
 17:   1061.93   0.034832  176.03  0.010236  (-0.053699  0.030623 -0.080092)
 18:   1315.85   0.048425  244.72  0.011484  (-0.090446 -0.033614  0.046626)
 19:   1366.71   0.023423  118.37  0.005348  ( 0.037414 -0.022013  0.058855)
 20:   1378.38   0.018708   94.54  0.004235  ( 0.004200  0.063271  0.014648)
 21:   1390.15   0.017565   88.76  0.003943  (-0.047186 -0.002582  0.041349)
 22:   1576.06   0.021659  109.45  0.004288  (-0.020594  0.027715 -0.055643)
 23:   1667.22   0.019076   96.40  0.003571  ( 0.049447 -0.004232  0.033282)
 24:   2069.77   0.238885  1207.23  0.036017  ( 0.189503 -0.007217 -0.007325)
 25:   3071.98   0.129737  655.64  0.013179  ( 0.002019 -0.102795 -0.051071)
 26:   3084.42   0.135884  686.70  0.013748  (-0.018332  0.050778 -0.104084)
 27:   3121.49   0.623514  3150.98  0.062334  ( 0.173731  0.147682 -0.101695)
 28:   3168.70   2.001481  10114.66  0.197112  ( 0.442782  0.031146 -0.009309)
 29:   3190.97   0.909437  4595.92  0.088939  (-0.101936 -0.085201  0.267000)

* The epsilon (eps) is given for a Dirac delta lineshape.
** The dipole moment derivative (T) already includes vibrational overlap.

The first frequency considered to be a vibration is 7
The total number of vibrations considered is 23


--------------------------
THERMOCHEMISTRY AT 298.15K
--------------------------

Temperature         ... 298.15 K
Pressure            ... 1.00 atm
Total Mass          ... 58.08 AMU

Throughout the following assumptions are being made:
  (1) The electronic state is orbitally nondegenerate
  (2) There are no thermally accessible electronically excited states
  (3) Hindered rotations indicated by low frequency modes are not
      treated as such but are treated as vibrations and this may
      cause some error
  (4) All equations used are the standard statistical mechanics
      equations for an ideal gas
  (5) All vibrations are strictly harmonic

freq.      71.43  E(vib)   ...       0.50 
freq.     346.97  E(vib)   ...       0.23 
freq.     398.13  E(vib)   ...       0.20 
freq.     527.06  E(vib)   ...       0.13 
freq.     661.76  E(vib)   ...       0.08 
freq.     837.21  E(vib)   ...       0.04 
freq.     939.74  E(vib)   ...       0.03 
freq.     954.05  E(vib)   ...       0.03 
freq.     984.96  E(vib)   ...       0.02 
freq.    1053.89  E(vib)   ...       0.02 
freq.    1061.93  E(vib)   ...       0.02 
freq.    1315.85  E(vib)   ...       0.01 
freq.    1366.71  E(vib)   ...       0.01 
freq.    1378.38  E(vib)   ...       0.01 
freq.    1390.15  E(vib)   ...       0.00 
freq.    1576.06  E(vib)   ...       0.00 
freq.    1667.22  E(vib)   ...       0.00 
freq.    2069.77  E(vib)   ...       0.00 
freq.    3071.98  E(vib)   ...       0.00 
freq.    3084.42  E(vib)   ...       0.00 
freq.    3121.49  E(vib)   ...       0.00 
freq.    3168.70  E(vib)   ...       0.00 
freq.    3190.97  E(vib)   ...       0.00 

------------
INNER ENERGY
------------

The inner energy is: U= E(el) + E(ZPE) + E(vib) + E(rot) + E(trans)
    E(el)   - is the total energy from the electronic structure calculation
              = E(kin-el) + E(nuc-el) + E(el-el) + E(nuc-nuc)
    E(ZPE)  - the the zero temperature vibrational energy from the frequency calculation
    E(vib)  - the the finite temperature correction to E(ZPE) due to population
              of excited vibrational states
    E(rot)  - is the rotational thermal energy
    E(trans)- is the translational thermal energy

Summary of contributions to the inner energy U:
Electronic energy                ...    -27.15602607 Eh
Zero point energy                ...      0.07800177 Eh      48.95 kcal/mol
Thermal vibrational correction   ...      0.00209855 Eh       1.32 kcal/mol
Thermal rotational correction    ...      0.00141627 Eh       0.89 kcal/mol
Thermal translational correction ...      0.00141627 Eh       0.89 kcal/mol
-----------------------------------------------------------------------
Total thermal energy                    -27.07309321 Eh


Summary of corrections to the electronic energy:
(perhaps to be used in another calculation)
Total thermal correction                  0.00493109 Eh       3.09 kcal/mol
Non-thermal (ZPE) correction              0.07800177 Eh      48.95 kcal/mol
-----------------------------------------------------------------------
Total correction                          0.08293287 Eh      52.04 kcal/mol


--------
ENTHALPY
--------

The enthalpy is H = U + kB*T
                kB is Boltzmann's constant
Total free energy                 ...    -27.07309321 Eh 
Thermal Enthalpy correction       ...      0.00094421 Eh       0.59 kcal/mol
-----------------------------------------------------------------------
Total Enthalpy                    ...    -27.07214900 Eh


Note: Only C1 symmetry has been detected, increase convergence thresholds 
      if your molecule has a higher symmetry. Symmetry factor of 1.0 is   
      used for the rotational entropy correction. 
 

Note: Rotational entropy computed according to Herzberg 
Infrared and Raman Spectra, Chapter V,1, Van Nostrand Reinhold, 1945 
Point Group:  C1, Symmetry Number:   1  
Rotational constants in cm-1:     0.392484     0.267932     0.167418 

Vibrational entropy computed according to the QRRHO of S. Grimme
Chem.Eur.J. 2012 18 9955


-------
ENTROPY
-------

The entropy contributions are T*S = T*(S(el)+S(vib)+S(rot)+S(trans))
     S(el)   - electronic entropy
     S(vib)  - vibrational entropy
     S(rot)  - rotational entropy
     S(trans)- translational entropy
The entropies will be listed as multiplied by the temperature to get
units of energy

Electronic entropy                ...      0.00000000 Eh      0.00 kcal/mol
Vibrational entropy               ...      0.00344152 Eh      2.16 kcal/mol
Rotational entropy                ...      0.01141784 Eh      7.16 kcal/mol
Translational entropy             ...      0.01810171 Eh     11.36 kcal/mol
-----------------------------------------------------------------------
Final entropy term                ...      0.03296107 Eh     20.68 kcal/mol

In case the symmetry of your molecule has not been determined correctly
or in case you have a reason to use a different symmetry number we print 
out the resulting rotational entropy values for sn=1,12 :
 --------------------------------------------------------
|  sn= 1 | S(rot)=       0.01141784 Eh      7.16 kcal/mol|
|  sn= 2 | S(rot)=       0.01076338 Eh      6.75 kcal/mol|
|  sn= 3 | S(rot)=       0.01038055 Eh      6.51 kcal/mol|
|  sn= 4 | S(rot)=       0.01010893 Eh      6.34 kcal/mol|
|  sn= 5 | S(rot)=       0.00989824 Eh      6.21 kcal/mol|
|  sn= 6 | S(rot)=       0.00972609 Eh      6.10 kcal/mol|
|  sn= 7 | S(rot)=       0.00958055 Eh      6.01 kcal/mol|
|  sn= 8 | S(rot)=       0.00945447 Eh      5.93 kcal/mol|
|  sn= 9 | S(rot)=       0.00934326 Eh      5.86 kcal/mol|
|  sn=10 | S(rot)=       0.00924378 Eh      5.80 kcal/mol|
|  sn=11 | S(rot)=       0.00915379 Eh      5.74 kcal/mol|
|  sn=12 | S(rot)=       0.00907164 Eh      5.69 kcal/mol|
 --------------------------------------------------------


-------------------
GIBBS FREE ENERGY
-------------------

The Gibbs free energy is G = H - T*S

Total enthalpy                    ...    -27.07214900 Eh 
Total entropy correction          ...     -0.03296107 Eh    -20.68 kcal/mol
-----------------------------------------------------------------------
Final Gibbs free energy         ...    -27.10511007 Eh

For completeness - the Gibbs free energy minus the electronic energy
G-E(el)                           ...      0.05091600 Eh     31.95 kcal/mol



Timings for individual modules:

Sum of individual times         ...      367.381 sec (=   6.123 min)
STO integral calculation        ...        0.491 sec (=   0.008 min)   0.1 %
SCF iterations                  ...        3.769 sec (=   0.063 min)   1.0 %
SCF Gradient evaluation         ...        0.311 sec (=   0.005 min)   0.1 %
Geometry relaxation             ...        0.556 sec (=   0.009 min)   0.2 %
Numerical frequency calculation ...      362.253 sec (=   6.038 min)  98.6 %
                             ****ORCA TERMINATED NORMALLY****
TOTAL RUN TIME: 0 days 0 hours 6 minutes 8 seconds 166 msec
