6
Coordinates from ORCA-job FCl_SN1_TS Relaxed Surface Scan Step 1
  C      -1.678608     -0.436597     -0.003669
  Cl      0.135217     -0.438558      0.006820
  H      -2.039035     -1.226247      0.658705
  H      -2.025164     -0.616595     -1.022818
  H      -2.034170      0.534323      0.346652
  F      -4.676841     -0.451456      0.098220
>
6
Coordinates from ORCA-job FCl_SN1_TS Relaxed Surface Scan Step 2
  C      -1.701508     -0.436483     -0.004105
  Cl      0.116714     -0.439213      0.010314
  H      -2.062810     -1.226147      0.657737
  H      -2.043848     -0.616441     -1.024500
  H      -2.056098      0.534905      0.345648
  F      -4.571051     -0.451750      0.098816
>
6
Coordinates from ORCA-job FCl_SN1_TS Relaxed Surface Scan Step 3
  C      -1.726738     -0.436886     -0.001375
  Cl      0.098595     -0.438555      0.005865
  H      -2.079695     -1.227957      0.662757
  H      -2.067509     -0.617261     -1.021899
  H      -2.075159      0.535749      0.350141
  F      -4.468093     -0.450220      0.088420
>
6
Coordinates from ORCA-job FCl_SN1_TS Relaxed Surface Scan Step 4
  C      -1.755700     -0.437601      0.003732
  Cl      0.081558     -0.437155     -0.004116
  H      -2.090390     -1.231614      0.672602
  H      -2.094058     -0.618840     -1.016914
  H      -2.090876      0.537642      0.358901
  F      -4.369134     -0.447563      0.069705
>
6
Coordinates from ORCA-job FCl_SN1_TS Relaxed Surface Scan Step 5
  C      -1.790387     -0.438160      0.007678
  Cl      0.067287     -0.436150     -0.011147
  H      -2.099909     -1.236471      0.681600
  H      -2.115704     -0.620507     -1.015985
  H      -2.104256      0.541670      0.366270
  F      -4.275631     -0.445512      0.055494
>
6
Coordinates from ORCA-job FCl_SN1_TS Relaxed Surface Scan Step 6
  C      -1.832847     -0.438472      0.009661
  Cl      0.058293     -0.435717     -0.013728
  H      -2.109166     -1.242416      0.688573
  H      -2.130014     -0.622138     -1.020627
  H      -2.115213      0.548066      0.371042
  F      -4.189654     -0.444453      0.048989
>
6
Coordinates from ORCA-job FCl_SN1_TS Relaxed Surface Scan Step 7
  C      -1.891149     -0.438691      0.011038
  Cl      0.060018     -0.435506     -0.014800
  H      -2.112718     -1.250660      0.696293
  H      -2.135764     -0.624161     -1.030002
  H      -2.119544      0.557767      0.375582
  F      -4.119443     -0.443879      0.045799
>
6
Coordinates from ORCA-job FCl_SN1_TS Relaxed Surface Scan Step 8
  C      -1.992833     -0.439062      0.013095
  Cl      0.086542     -0.435148     -0.016240
  H      -2.095314     -1.262651      0.706868
  H      -2.121088     -0.627090     -1.044431
  H      -2.103291      0.571979      0.381532
  F      -4.092615     -0.443157      0.043085
>
6
Coordinates from ORCA-job FCl_SN1_TS Relaxed Surface Scan Step 9
  C      -2.154921     -0.439389      0.015438
  Cl      0.183177     -0.434943     -0.017667
  H      -2.062171     -1.263374      0.707111
  H      -2.088240     -0.627233     -1.045820
  H      -2.070297      0.572955      0.381482
  F      -4.126148     -0.443147      0.043366
>
6
Coordinates from ORCA-job FCl_SN1_TS Relaxed Surface Scan Step 10
  C      -2.278408     -0.439619      0.017180
  Cl      0.302484     -0.434729     -0.019336
  H      -2.062604     -1.252572      0.698029
  H      -2.088354     -0.624765     -1.031940
  H      -2.070642      0.559702      0.376666
  F      -4.121076     -0.443146      0.043310
>
6
Coordinates from ORCA-job FCl_SN1_TS Relaxed Surface Scan Step 11
  C      -2.357539     -0.439763      0.018291
  Cl      0.374157     -0.434616     -0.020314
  H      -2.076680     -1.244235      0.691189
  H      -2.102218     -0.622878     -1.021018
  H      -2.084671      0.549429      0.373129
  F      -4.071649     -0.443067      0.042634
>
6
Coordinates from ORCA-job FCl_SN1_TS Relaxed Surface Scan Step 12
  C      -2.417966     -0.439870      0.019133
  Cl      0.414810     -0.434573     -0.020836
  H      -2.092849     -1.237449      0.685675
  H      -2.118251     -0.621342     -1.012070
  H      -2.100827      0.541065      0.370304
  F      -4.003517     -0.442961      0.041705
>
6
Coordinates from ORCA-job FCl_SN1_TS Relaxed Surface Scan Step 13
  C      -2.467178     -0.439951      0.019813
  Cl      0.438998     -0.434581     -0.021100
  H      -2.110962     -1.231815      0.681149
  H      -2.136314     -0.620065     -1.004597
  H      -2.118976      0.534129      0.368010
  F      -3.924169     -0.442848      0.040635
>
6
Coordinates from ORCA-job FCl_SN1_TS Relaxed Surface Scan Step 14
  C      -2.512879     -0.440023      0.020439
  Cl      0.453285     -0.434634     -0.021186
  H      -2.128071     -1.226521      0.676888
  H      -2.153451     -0.618852     -0.997616
  H      -2.136174      0.527647      0.365842
  F      -3.841310     -0.442748      0.039544
>
6
Coordinates from ORCA-job FCl_SN1_TS Relaxed Surface Scan Step 15
  C      -2.564204     -0.440106      0.021145
  Cl      0.459003     -0.434737     -0.021104
  H      -2.138526     -1.220597      0.672003
  H      -2.164012     -0.617470     -0.989989
  H      -2.146786      0.520466      0.363285
  F      -3.764075     -0.442685      0.038569
